
    -----------------------------------------------------------------------
          Psi4: An Open-Source Ab Initio Electronic Structure Package
                               Psi4 1.3.2 release

                         Git: Rev {HEAD} ecbda83 


    R. M. Parrish, L. A. Burns, D. G. A. Smith, A. C. Simmonett,
    A. E. DePrince III, E. G. Hohenstein, U. Bozkaya, A. Yu. Sokolov,
    R. Di Remigio, R. M. Richard, J. F. Gonthier, A. M. James,
    H. R. McAlexander, A. Kumar, M. Saitow, X. Wang, B. P. Pritchard,
    P. Verma, H. F. Schaefer III, K. Patkowski, R. A. King, E. F. Valeev,
    F. A. Evangelista, J. M. Turney, T. D. Crawford, and C. D. Sherrill,
    J. Chem. Theory Comput. 13(7) pp 3185--3197 (2017).
    (doi: 10.1021/acs.jctc.7b00174)


                         Additional Contributions by
    P. Kraus, H. Kruse, M. H. Lechner, M. C. Schieber, R. A. Shaw,
    A. Alenaizan, R. Galvelis, Z. L. Glick, S. Lehtola, and J. P. Misiewicz

    -----------------------------------------------------------------------


    Psi4 started on: Friday, 14 May 2021 10:14AM

    Process ID: 28856
    Host:       aaojha
    PSIDATADIR: /home/aaojha/anaconda3/envs/torsiondrive/share/psi4
    Memory:     500.0 MiB
    Threads:    1
    
  ==> Input File <==

--------------------------------------------------------------------------
memory 50 GB
molecule {
1 1
C           0.1549037     0.0197502    -0.0173354
C          -0.5782072    -0.3964314    -1.1834547
C          -1.9949636    -0.4004283    -1.1643819
C          -2.6985559    -0.0035545     0.0113634
C          -1.9788808     0.4013511     1.1744033
C          -0.5619704     0.4146240     1.1661917
C           1.6621917     0.0046827    -0.0214908
N           2.3872020     0.6758125     0.9479220
N           2.3641605    -0.7112807    -0.9746394
H          -0.0525966    -0.6772585    -2.1166537
H          -2.5541760    -0.7091481    -2.0690175
H          -3.8071604    -0.0112799     0.0216771
H          -2.5247033     0.6989903     2.0908727
H          -0.0223147     0.6991239     2.0900470
H           3.4389357     0.6647872     0.9717063
H           1.8983838     1.3220241     1.6152887
H           3.4156283    -0.7214797    -1.0043998
H           1.8536670    -1.3232408    -1.6576947
}
set {
basis STO-3G
}
gradient('BLYP')
--------------------------------------------------------------------------

  Memory set to  46.566 GiB by Python driver.
gradient() will perform analytic gradient computation.

*** tstart() called on aaojha
*** at Fri May 14 10:14:39 2021

   => Loading Basis Set <=

    Name: STO-3G
    Role: ORBITAL
    Keyword: BASIS
    atoms 1-7   entry C          line    61 file /home/aaojha/anaconda3/envs/torsiondrive/share/psi4/basis/sto-3g.gbs 
    atoms 8-9   entry N          line    71 file /home/aaojha/anaconda3/envs/torsiondrive/share/psi4/basis/sto-3g.gbs 
    atoms 10-18 entry H          line    19 file /home/aaojha/anaconda3/envs/torsiondrive/share/psi4/basis/sto-3g.gbs 


         ---------------------------------------------------------
                                   SCF
               by Justin Turney, Rob Parrish, Andy Simmonett
                          and Daniel G. A. Smith
                              RKS Reference
                        1 Threads,  47683 MiB Core
         ---------------------------------------------------------

  ==> Geometry <==

    Molecular point group: c1
    Full point group: C1

    Geometry (in Angstrom), charge = 1, multiplicity = 1:

       Center              X                  Y                   Z               Mass       
    ------------   -----------------  -----------------  -----------------  -----------------
         C            0.185905305150     0.020366913225    -0.010321593622    12.000000000000
         C           -0.547205594850    -0.395814686775    -1.176440893622    12.000000000000
         C           -1.963961994850    -0.399811586775    -1.157368093622    12.000000000000
         C           -2.667554294850    -0.002937786775     0.018377206378    12.000000000000
         C           -1.947879194850     0.401967813225     1.181417106378    12.000000000000
         C           -0.530968794850     0.415240713225     1.173205506378    12.000000000000
         C            1.693193305150     0.005299413225    -0.014476993622    12.000000000000
         N            2.418203605150     0.676429213225     0.954935806378    14.003074004430
         N            2.395162105150    -0.710663986775    -0.967625593622    14.003074004430
         H           -0.021594994850    -0.676641786775    -2.109639893622     1.007825032230
         H           -2.523174394850    -0.708531386775    -2.062003693622     1.007825032230
         H           -3.776158794850    -0.010663186775     0.028690906378     1.007825032230
         H           -2.493701694850     0.699607013225     2.097886506378     1.007825032230
         H            0.008686905150     0.699740613225     2.097060806378     1.007825032230
         H            3.469937305150     0.665403913225     0.978720106378     1.007825032230
         H            1.929385405150     1.322640813225     1.622302506378     1.007825032230
         H            3.446629905150    -0.720862986775    -0.997385993622     1.007825032230
         H            1.884668605150    -1.322624086775    -1.650680893622     1.007825032230

  Running in c1 symmetry.

  Rotational constants: A =      0.11660  B =      0.03807  C =      0.02900 [cm^-1]
  Rotational constants: A =   3495.57949  B =   1141.33006  C =    869.51898 [MHz]
  Nuclear repulsion =  406.300583514874916

  Charge       = 1
  Multiplicity = 1
  Electrons    = 64
  Nalpha       = 32
  Nbeta        = 32

  ==> Algorithm <==

  SCF Algorithm Type is DF.
  DIIS enabled.
  MOM disabled.
  Fractional occupation disabled.
  Guess Type is SAD.
  Energy threshold   = 1.00e-08
  Density threshold  = 1.00e-08
  Integral threshold = 0.00e+00

  ==> Primary Basis <==

  Basis Set: STO-3G
    Blend: STO-3G
    Number of shells: 36
    Number of basis function: 54
    Number of Cartesian functions: 54
    Spherical Harmonics?: true
    Max angular momentum: 1

  ==> DFT Potential <==

   => Composite Functional: BLYP <= 

    BLYP GGA Exchange-Correlation Functional

    P.J. Stephens et. al., J. Phys. Chem., 98, 11623-11627, 1994
    B. Miehlich et. al., Chem. Phys. Lett., 157(3), 200-206 1989


    Deriv               =              1
    GGA                 =           TRUE
    Meta                =          FALSE

    Exchange Hybrid     =          FALSE
    MP2 Hybrid          =          FALSE

   => Exchange Functionals <=

    1.0000     XC_GGA_X_B88

   => Correlation Functionals <=

    1.0000     XC_GGA_C_LYP

   => Molecular Quadrature <=

    Radial Scheme          =       TREUTLER
    Pruning Scheme         =           FLAT
    Nuclear Scheme         =       TREUTLER

    BS radius alpha        =              1
    Pruning alpha          =              1
    Radial Points          =             75
    Spherical Points       =            302
    Total Points           =         395088
    Total Blocks           =           2989
    Max Points             =            256
    Max Functions          =             51

   => Loading Basis Set <=

    Name: (STO-3G AUX)
    Role: JKFIT
    Keyword: DF_BASIS_SCF
    atoms 1-7   entry C          line   203 file /home/aaojha/anaconda3/envs/torsiondrive/share/psi4/basis/def2-svp-jkfit.gbs 
    atoms 8-9   entry N          line   263 file /home/aaojha/anaconda3/envs/torsiondrive/share/psi4/basis/def2-svp-jkfit.gbs 
    atoms 10-18 entry H          line    23 file /home/aaojha/anaconda3/envs/torsiondrive/share/psi4/basis/def2-svp-jkfit.gbs 

  ==> Pre-Iterations <==

   -------------------------------------------------------
    Irrep   Nso     Nmo     Nalpha   Nbeta   Ndocc  Nsocc
   -------------------------------------------------------
     A         54      54       0       0       0       0
   -------------------------------------------------------
    Total      54      54      32      32      32       0
   -------------------------------------------------------

  ==> Integral Setup <==

  DFHelper Memory: AOs need 0.024 GiB; user supplied 34.425 GiB. Using in-core AOs.

  ==> MemDFJK: Density-Fitted J/K Matrices <==

    J tasked:                   Yes
    K tasked:                    No
    wK tasked:                   No
    OpenMP threads:               1
    Memory [MiB]:             35251
    Algorithm:                 Core
    Schwarz Cutoff:           1E-12
    Mask sparsity (%):       1.8519
    Fitting Condition:        1E-10

   => Auxiliary Basis Set <=

  Basis Set: (STO-3G AUX)
    Blend: DEF2-SVP-JKFIT
    Number of shells: 279
    Number of basis function: 841
    Number of Cartesian functions: 989
    Spherical Harmonics?: true
    Max angular momentum: 4

  Cached 100.0% of DFT collocation blocks in 0.500 [GiB].

  Minimum eigenvalue in the overlap matrix is 1.8839931526E-01.
  Using Symmetric Orthogonalization.

  SCF Guess: Superposition of Atomic Densities via on-the-fly atomic UHF.

  ==> Iterations <==

                           Total Energy        Delta E     RMS |[F,P]|

   @DF-RKS iter SAD:  -373.14360313593340   -3.73144e+02   0.00000e+00 
   @DF-RKS iter   1:  -376.48701564645455   -3.34341e+00   5.06857e-03 DIIS
   @DF-RKS iter   2:  -376.34555112174462    1.41465e-01   9.85466e-03 DIIS
   @DF-RKS iter   3:  -376.53533173221570   -1.89781e-01   1.72802e-03 DIIS
   @DF-RKS iter   4:  -376.54058826694472   -5.25653e-03   6.88194e-04 DIIS
   @DF-RKS iter   5:  -376.54162282569507   -1.03456e-03   1.56355e-04 DIIS
   @DF-RKS iter   6:  -376.54166988387351   -4.70582e-05   4.72095e-05 DIIS
   @DF-RKS iter   7:  -376.54167348299825   -3.59912e-06   1.95804e-05 DIIS
   @DF-RKS iter   8:  -376.54167414488177   -6.61884e-07   7.89423e-06 DIIS
   @DF-RKS iter   9:  -376.54167427744278   -1.32561e-07   9.32058e-07 DIIS
   @DF-RKS iter  10:  -376.54167427828247   -8.39691e-10   6.00858e-07 DIIS
   @DF-RKS iter  11:  -376.54167427914581   -8.63338e-10   5.26231e-08 DIIS
   @DF-RKS iter  12:  -376.54167427914808   -2.27374e-12   4.35676e-08 DIIS
   @DF-RKS iter  13:  -376.54167427915195   -3.86535e-12   6.99466e-09 DIIS
  Energy and wave function converged.


  ==> Post-Iterations <==

    Orbital Energies [Eh]
    ---------------------

    Doubly Occupied:                                                      

       1A    -14.120493     2A    -14.120254     3A    -10.091634  
       4A     -9.954436     5A     -9.928091     6A     -9.928042  
       7A     -9.916248     8A     -9.913040     9A     -9.912854  
      10A     -1.041100    11A     -0.961448    12A     -0.882083  
      13A     -0.806072    14A     -0.782936    15A     -0.737853  
      16A     -0.677751    17A     -0.668264    18A     -0.634687  
      19A     -0.632587    20A     -0.592863    21A     -0.570807  
      22A     -0.538661    23A     -0.507186    24A     -0.493914  
      25A     -0.487847    26A     -0.483571    27A     -0.419728  
      28A     -0.417629    29A     -0.412059    30A     -0.361376  
      31A     -0.325423    32A     -0.320430  

    Virtual:                                                              

      33A     -0.189547    34A     -0.107106    35A     -0.087961  
      36A      0.010083    37A      0.028376    38A      0.044275  
      39A      0.062610    40A      0.104352    41A      0.124158  
      42A      0.154387    43A      0.184776    44A      0.190924  
      45A      0.215261    46A      0.228629    47A      0.259255  
      48A      0.273905    49A      0.345570    50A      0.351969  
      51A      0.358094    52A      0.371939    53A      0.491008  
      54A      0.532596  

    Final Occupation by Irrep:
              A 
    DOCC [    32 ]

  @DF-RKS Final Energy:  -376.54167427915195

   => Energetics <=

    Nuclear Repulsion Energy =            406.3005835148749156
    One-Electron Energy =               -1303.3954008180976416
    Two-Electron Energy =                 574.8455927254588005
    DFT Exchange-Correlation Energy =     -54.2924497013879730
    Empirical Dispersion Energy =           0.0000000000000000
    VV10 Nonlocal Energy =                  0.0000000000000000
    Total Energy =                       -376.5416742791518914

Computation Completed


Properties will be evaluated at   0.000000,   0.000000,   0.000000 [a0]

Properties computed using the SCF density matrix

  Nuclear Dipole Moment: [e a0]
     X:     1.7903      Y:    -0.0486      Z:     0.0047

  Electronic Dipole Moment: [e a0]
     X:     0.6920      Y:     0.0465      Z:    -0.0268

  Dipole Moment: [e a0]
     X:     2.4823      Y:    -0.0021      Z:    -0.0221     Total:     2.4824

  Dipole Moment: [D]
     X:     6.3094      Y:    -0.0052      Z:    -0.0563     Total:     6.3097


*** tstop() called on aaojha at Fri May 14 10:14:46 2021
Module time:
	user time   =       6.93 seconds =       0.12 minutes
	system time =       0.18 seconds =       0.00 minutes
	total time  =          7 seconds =       0.12 minutes
Total time:
	user time   =       6.93 seconds =       0.12 minutes
	system time =       0.18 seconds =       0.00 minutes
	total time  =          7 seconds =       0.12 minutes

*** tstart() called on aaojha
*** at Fri May 14 10:14:46 2021


         ------------------------------------------------------------
                                   SCF GRAD                          
                          Rob Parrish, Justin Turney,                
                       Andy Simmonett, and Alex Sokolov              
         ------------------------------------------------------------

  ==> Geometry <==

    Molecular point group: c1
    Full point group: C1

    Geometry (in Angstrom), charge = 1, multiplicity = 1:

       Center              X                  Y                   Z               Mass       
    ------------   -----------------  -----------------  -----------------  -----------------
         C            0.185905305150     0.020366913225    -0.010321593622    12.000000000000
         C           -0.547205594850    -0.395814686775    -1.176440893622    12.000000000000
         C           -1.963961994850    -0.399811586775    -1.157368093622    12.000000000000
         C           -2.667554294850    -0.002937786775     0.018377206378    12.000000000000
         C           -1.947879194850     0.401967813225     1.181417106378    12.000000000000
         C           -0.530968794850     0.415240713225     1.173205506378    12.000000000000
         C            1.693193305150     0.005299413225    -0.014476993622    12.000000000000
         N            2.418203605150     0.676429213225     0.954935806378    14.003074004430
         N            2.395162105150    -0.710663986775    -0.967625593622    14.003074004430
         H           -0.021594994850    -0.676641786775    -2.109639893622     1.007825032230
         H           -2.523174394850    -0.708531386775    -2.062003693622     1.007825032230
         H           -3.776158794850    -0.010663186775     0.028690906378     1.007825032230
         H           -2.493701694850     0.699607013225     2.097886506378     1.007825032230
         H            0.008686905150     0.699740613225     2.097060806378     1.007825032230
         H            3.469937305150     0.665403913225     0.978720106378     1.007825032230
         H            1.929385405150     1.322640813225     1.622302506378     1.007825032230
         H            3.446629905150    -0.720862986775    -0.997385993622     1.007825032230
         H            1.884668605150    -1.322624086775    -1.650680893622     1.007825032230

  Nuclear repulsion =  406.300583514874916

  ==> Basis Set <==

  Basis Set: STO-3G
    Blend: STO-3G
    Number of shells: 36
    Number of basis function: 54
    Number of Cartesian functions: 54
    Spherical Harmonics?: true
    Max angular momentum: 1

  ==> DFJKGrad: Density-Fitted SCF Gradients <==

    Gradient:                    1
    J tasked:                  Yes
    K tasked:                   No
    wK tasked:                  No
    OpenMP threads:              1
    Integrals threads:           1
    Memory [MiB]:            35762
    Schwarz Cutoff:          0E+00
    Fitting Condition:       1E-10

   => Auxiliary Basis Set <=

  Basis Set: (STO-3G AUX)
    Blend: DEF2-SVP-JKFIT
    Number of shells: 279
    Number of basis function: 841
    Number of Cartesian functions: 989
    Spherical Harmonics?: true
    Max angular momentum: 4

  ==> DFT Potential <==

   => Composite Functional: BLYP <= 

    BLYP GGA Exchange-Correlation Functional

    P.J. Stephens et. al., J. Phys. Chem., 98, 11623-11627, 1994
    B. Miehlich et. al., Chem. Phys. Lett., 157(3), 200-206 1989


    Deriv               =              1
    GGA                 =           TRUE
    Meta                =          FALSE

    Exchange Hybrid     =          FALSE
    MP2 Hybrid          =          FALSE

   => Exchange Functionals <=

    1.0000     XC_GGA_X_B88

   => Correlation Functionals <=

    1.0000     XC_GGA_C_LYP

   => Molecular Quadrature <=

    Radial Scheme          =       TREUTLER
    Pruning Scheme         =           FLAT
    Nuclear Scheme         =       TREUTLER

    BS radius alpha        =              1
    Pruning alpha          =              1
    Radial Points          =             75
    Spherical Points       =            302
    Total Points           =         395088
    Total Blocks           =           2989
    Max Points             =            256
    Max Functions          =             51


  -Total Gradient:
     Atom            X                  Y                   Z
    ------   -----------------  -----------------  -----------------
       1       -0.000061556385     0.001399444397    -0.000532676038
       2        0.000059586176    -0.001541082687     0.000376356883
       3        0.000137723935     0.000099857900     0.000196833440
       4       -0.000175882314    -0.000025415628    -0.000011735125
       5       -0.000009741071     0.000045755026     0.000054598234
       6       -0.000029667909    -0.000077566095    -0.000090261002
       7       -0.000329610386     0.001525830669    -0.000994554382
       8        0.000548662229    -0.001711859640     0.000632476578
       9       -0.000155125835    -0.000077348644     0.000041730086
      10        0.000026245751    -0.000036304323    -0.000005285877
      11        0.000009391425     0.000013599579     0.000016439871
      12       -0.000012511374    -0.000000409764     0.000023784411
      13       -0.000014552358     0.000003710504    -0.000005932409
      14       -0.000029655402     0.000027011250    -0.000016965842
      15        0.000025975616     0.000260251597     0.000295727904
      16        0.000022950808    -0.000046913950    -0.000042413351
      17        0.000008994151     0.000117572625     0.000109645719
      18       -0.000029128011     0.000023767473    -0.000045971886


*** tstop() called on aaojha at Fri May 14 10:14:48 2021
Module time:
	user time   =       2.00 seconds =       0.03 minutes
	system time =       0.01 seconds =       0.00 minutes
	total time  =          2 seconds =       0.03 minutes
Total time:
	user time   =       8.93 seconds =       0.15 minutes
	system time =       0.19 seconds =       0.00 minutes
	total time  =          9 seconds =       0.15 minutes

    Psi4 stopped on: Friday, 14 May 2021 10:14AM
    Psi4 wall time for execution: 0:00:09.18

*** Psi4 exiting successfully. Buy a developer a beer!
