
    -----------------------------------------------------------------------
          Psi4: An Open-Source Ab Initio Electronic Structure Package
                               Psi4 1.3.2 release

                         Git: Rev {HEAD} ecbda83 


    R. M. Parrish, L. A. Burns, D. G. A. Smith, A. C. Simmonett,
    A. E. DePrince III, E. G. Hohenstein, U. Bozkaya, A. Yu. Sokolov,
    R. Di Remigio, R. M. Richard, J. F. Gonthier, A. M. James,
    H. R. McAlexander, A. Kumar, M. Saitow, X. Wang, B. P. Pritchard,
    P. Verma, H. F. Schaefer III, K. Patkowski, R. A. King, E. F. Valeev,
    F. A. Evangelista, J. M. Turney, T. D. Crawford, and C. D. Sherrill,
    J. Chem. Theory Comput. 13(7) pp 3185--3197 (2017).
    (doi: 10.1021/acs.jctc.7b00174)


                         Additional Contributions by
    P. Kraus, H. Kruse, M. H. Lechner, M. C. Schieber, R. A. Shaw,
    A. Alenaizan, R. Galvelis, Z. L. Glick, S. Lehtola, and J. P. Misiewicz

    -----------------------------------------------------------------------


    Psi4 started on: Friday, 14 May 2021 10:03AM

    Process ID: 17888
    Host:       aaojha
    PSIDATADIR: /home/aaojha/anaconda3/envs/torsiondrive/share/psi4
    Memory:     500.0 MiB
    Threads:    1
    
  ==> Input File <==

--------------------------------------------------------------------------
memory 50 GB
molecule {
1 1
C           0.1493859    -0.0012172     0.0045387
C          -0.5585313    -1.0344368     0.6935878
C          -1.9793962    -1.0225022     0.6810861
C          -2.6817922     0.0061927    -0.0093235
C          -1.9673159     1.0311906    -0.6928800
C          -0.5463961     1.0357097    -0.6913952
C           1.6808562    -0.0051112     0.0119087
N           2.3722613    -0.6698422    -0.9757421
N           2.3652483     0.6569566     1.0061860
H          -0.0095359    -1.8327561     1.2292897
H          -2.5365677    -1.8187308     1.2120423
H          -3.7896028     0.0090763    -0.0147446
H          -2.5151477     1.8302802    -1.2292322
H           0.0120592     1.8309790    -1.2218271
H           3.4257566    -0.7083065    -1.0224792
H           1.8319032    -1.1713301    -1.7276012
H           3.4184271     0.6884312     1.0639209
H           1.8199829     1.1596731     1.7536811
}
set {
basis STO-3G
}
gradient('BLYP')
--------------------------------------------------------------------------

  Memory set to  46.566 GiB by Python driver.
gradient() will perform analytic gradient computation.

*** tstart() called on aaojha
*** at Fri May 14 10:03:24 2021

   => Loading Basis Set <=

    Name: STO-3G
    Role: ORBITAL
    Keyword: BASIS
    atoms 1-7   entry C          line    61 file /home/aaojha/anaconda3/envs/torsiondrive/share/psi4/basis/sto-3g.gbs 
    atoms 8-9   entry N          line    71 file /home/aaojha/anaconda3/envs/torsiondrive/share/psi4/basis/sto-3g.gbs 
    atoms 10-18 entry H          line    19 file /home/aaojha/anaconda3/envs/torsiondrive/share/psi4/basis/sto-3g.gbs 


         ---------------------------------------------------------
                                   SCF
               by Justin Turney, Rob Parrish, Andy Simmonett
                          and Daniel G. A. Smith
                              RKS Reference
                        1 Threads,  47683 MiB Core
         ---------------------------------------------------------

  ==> Geometry <==

    Molecular point group: c1
    Full point group: C1

    Geometry (in Angstrom), charge = 1, multiplicity = 1:

       Center              X                  Y                   Z               Mass       
    ------------   -----------------  -----------------  -----------------  -----------------
         C            0.172745782659    -0.000595165872     0.000904917362    12.000000000000
         C           -0.535171417341    -1.033814765872     0.689954017362    12.000000000000
         C           -1.956036317341    -1.021880165872     0.677452317362    12.000000000000
         C           -2.658432317341     0.006814734128    -0.012957282638    12.000000000000
         C           -1.943956017341     1.031812634128    -0.696513782638    12.000000000000
         C           -0.523036217341     1.036331734128    -0.695028982638    12.000000000000
         C            1.704216082659    -0.004489165872     0.008274917362    12.000000000000
         N            2.395621182659    -0.669220165872    -0.979375882638    14.003074004430
         N            2.388608182659     0.657578634128     1.002552217362    14.003074004430
         H            0.013823982659    -1.832134065872     1.225655917362     1.007825032230
         H           -2.513207817341    -1.818108765872     1.208408517362     1.007825032230
         H           -3.766242917341     0.009698334128    -0.018378382638     1.007825032230
         H           -2.491787817341     1.830902234128    -1.232865982638     1.007825032230
         H            0.035419082659     1.831601034128    -1.225460882638     1.007825032230
         H            3.449116482659    -0.707684465872    -1.026112982638     1.007825032230
         H            1.855263082659    -1.170708065872    -1.731234982638     1.007825032230
         H            3.441786982659     0.689053234128     1.060287117362     1.007825032230
         H            1.843342782659     1.160295134128     1.750047317362     1.007825032230

  Running in c1 symmetry.

  Rotational constants: A =      0.11609  B =      0.03455  C =      0.03184 [cm^-1]
  Rotational constants: A =   3480.29860  B =   1035.91542  C =    954.68217 [MHz]
  Nuclear repulsion =  405.191993568521241

  Charge       = 1
  Multiplicity = 1
  Electrons    = 64
  Nalpha       = 32
  Nbeta        = 32

  ==> Algorithm <==

  SCF Algorithm Type is DF.
  DIIS enabled.
  MOM disabled.
  Fractional occupation disabled.
  Guess Type is SAD.
  Energy threshold   = 1.00e-08
  Density threshold  = 1.00e-08
  Integral threshold = 0.00e+00

  ==> Primary Basis <==

  Basis Set: STO-3G
    Blend: STO-3G
    Number of shells: 36
    Number of basis function: 54
    Number of Cartesian functions: 54
    Spherical Harmonics?: true
    Max angular momentum: 1

  ==> DFT Potential <==

   => Composite Functional: BLYP <= 

    BLYP GGA Exchange-Correlation Functional

    P.J. Stephens et. al., J. Phys. Chem., 98, 11623-11627, 1994
    B. Miehlich et. al., Chem. Phys. Lett., 157(3), 200-206 1989


    Deriv               =              1
    GGA                 =           TRUE
    Meta                =          FALSE

    Exchange Hybrid     =          FALSE
    MP2 Hybrid          =          FALSE

   => Exchange Functionals <=

    1.0000     XC_GGA_X_B88

   => Correlation Functionals <=

    1.0000     XC_GGA_C_LYP

   => Molecular Quadrature <=

    Radial Scheme          =       TREUTLER
    Pruning Scheme         =           FLAT
    Nuclear Scheme         =       TREUTLER

    BS radius alpha        =              1
    Pruning alpha          =              1
    Radial Points          =             75
    Spherical Points       =            302
    Total Points           =         395884
    Total Blocks           =           2945
    Max Points             =            256
    Max Functions          =             51

   => Loading Basis Set <=

    Name: (STO-3G AUX)
    Role: JKFIT
    Keyword: DF_BASIS_SCF
    atoms 1-7   entry C          line   203 file /home/aaojha/anaconda3/envs/torsiondrive/share/psi4/basis/def2-svp-jkfit.gbs 
    atoms 8-9   entry N          line   263 file /home/aaojha/anaconda3/envs/torsiondrive/share/psi4/basis/def2-svp-jkfit.gbs 
    atoms 10-18 entry H          line    23 file /home/aaojha/anaconda3/envs/torsiondrive/share/psi4/basis/def2-svp-jkfit.gbs 

  ==> Pre-Iterations <==

   -------------------------------------------------------
    Irrep   Nso     Nmo     Nalpha   Nbeta   Ndocc  Nsocc
   -------------------------------------------------------
     A         54      54       0       0       0       0
   -------------------------------------------------------
    Total      54      54      32      32      32       0
   -------------------------------------------------------

  ==> Integral Setup <==

  DFHelper Memory: AOs need 0.024 GiB; user supplied 34.424 GiB. Using in-core AOs.

  ==> MemDFJK: Density-Fitted J/K Matrices <==

    J tasked:                   Yes
    K tasked:                    No
    wK tasked:                   No
    OpenMP threads:               1
    Memory [MiB]:             35249
    Algorithm:                 Core
    Schwarz Cutoff:           1E-12
    Mask sparsity (%):       1.8519
    Fitting Condition:        1E-10

   => Auxiliary Basis Set <=

  Basis Set: (STO-3G AUX)
    Blend: DEF2-SVP-JKFIT
    Number of shells: 279
    Number of basis function: 841
    Number of Cartesian functions: 989
    Spherical Harmonics?: true
    Max angular momentum: 4

  Cached 100.0% of DFT collocation blocks in 0.501 [GiB].

  Minimum eigenvalue in the overlap matrix is 1.8747271137E-01.
  Using Symmetric Orthogonalization.

  SCF Guess: Superposition of Atomic Densities via on-the-fly atomic UHF.

  ==> Iterations <==

                           Total Energy        Delta E     RMS |[F,P]|

   @DF-RKS iter SAD:  -373.14372336364988   -3.73144e+02   0.00000e+00 
   @DF-RKS iter   1:  -376.47784649657535   -3.33412e+00   5.17783e-03 DIIS
   @DF-RKS iter   2:  -376.32424618288076    1.53600e-01   1.04328e-02 DIIS
   @DF-RKS iter   3:  -376.53053388332728   -2.06288e-01   1.43159e-03 DIIS
   @DF-RKS iter   4:  -376.53387142216411   -3.33754e-03   6.17808e-04 DIIS
   @DF-RKS iter   5:  -376.53467825682844   -8.06835e-04   1.69844e-04 DIIS
   @DF-RKS iter   6:  -376.53473674602174   -5.84892e-05   2.76304e-05 DIIS
   @DF-RKS iter   7:  -376.53473775484099   -1.00882e-06   1.71048e-05 DIIS
   @DF-RKS iter   8:  -376.53473827882851   -5.23988e-07   3.64396e-06 DIIS
   @DF-RKS iter   9:  -376.53473830553219   -2.67037e-08   7.24316e-07 DIIS
   @DF-RKS iter  10:  -376.53473830618793   -6.55746e-10   4.19962e-07 DIIS
   @DF-RKS iter  11:  -376.53473830648227   -2.94335e-10   1.67872e-07 DIIS
   @DF-RKS iter  12:  -376.53473830653593   -5.36602e-11   3.09085e-08 DIIS
   @DF-RKS iter  13:  -376.53473830653775   -1.81899e-12   5.64498e-09 DIIS
  Energy and wave function converged.


  ==> Post-Iterations <==

    Orbital Energies [Eh]
    ---------------------

    Doubly Occupied:                                                      

       1A    -14.138306     2A    -14.138221     3A    -10.102657  
       4A     -9.938291     5A     -9.911953     6A     -9.911917  
       7A     -9.899066     8A     -9.898732     9A     -9.897383  
      10A     -1.053061    11A     -0.974619    12A     -0.871874  
      13A     -0.798729    14A     -0.769541    15A     -0.738062  
      16A     -0.681468    17A     -0.662419    18A     -0.645307  
      19A     -0.625333    20A     -0.601666    21A     -0.565998  
      22A     -0.522838    23A     -0.517221    24A     -0.477137  
      25A     -0.475363    26A     -0.469001    27A     -0.411916  
      28A     -0.404721    29A     -0.399530    30A     -0.376210  
      31A     -0.312783    32A     -0.307181  

    Virtual:                                                              

      33A     -0.183146    34A     -0.112677    35A     -0.094992  
      36A      0.005139    37A      0.022741    38A      0.041718  
      39A      0.058527    40A      0.110108    41A      0.112031  
      42A      0.170032    43A      0.193944    44A      0.200715  
      45A      0.242490    46A      0.247408    47A      0.253470  
      48A      0.281653    49A      0.352007    50A      0.357462  
      51A      0.364666    52A      0.369697    53A      0.502039  
      54A      0.547478  

    Final Occupation by Irrep:
              A 
    DOCC [    32 ]

  @DF-RKS Final Energy:  -376.53473830653775

   => Energetics <=

    Nuclear Repulsion Energy =            405.1919935685212408
    One-Electron Energy =               -1301.4504162240627920
    Two-Electron Energy =                 574.0150399824134411
    DFT Exchange-Correlation Energy =     -54.2913556334096370
    Empirical Dispersion Energy =           0.0000000000000000
    VV10 Nonlocal Energy =                  0.0000000000000000
    Total Energy =                       -376.5347383065378040

Computation Completed


Properties will be evaluated at   0.000000,   0.000000,   0.000000 [a0]

Properties computed using the SCF density matrix

  Nuclear Dipole Moment: [e a0]
     X:     1.7368      Y:    -0.0066      Z:     0.0096

  Electronic Dipole Moment: [e a0]
     X:     1.2193      Y:    -0.0027      Z:     0.0059

  Dipole Moment: [e a0]
     X:     2.9562      Y:    -0.0094      Z:     0.0155     Total:     2.9562

  Dipole Moment: [D]
     X:     7.5138      Y:    -0.0238      Z:     0.0395     Total:     7.5140


*** tstop() called on aaojha at Fri May 14 10:03:31 2021
Module time:
	user time   =       6.76 seconds =       0.11 minutes
	system time =       0.22 seconds =       0.00 minutes
	total time  =          7 seconds =       0.12 minutes
Total time:
	user time   =       6.76 seconds =       0.11 minutes
	system time =       0.22 seconds =       0.00 minutes
	total time  =          7 seconds =       0.12 minutes

*** tstart() called on aaojha
*** at Fri May 14 10:03:31 2021


         ------------------------------------------------------------
                                   SCF GRAD                          
                          Rob Parrish, Justin Turney,                
                       Andy Simmonett, and Alex Sokolov              
         ------------------------------------------------------------

  ==> Geometry <==

    Molecular point group: c1
    Full point group: C1

    Geometry (in Angstrom), charge = 1, multiplicity = 1:

       Center              X                  Y                   Z               Mass       
    ------------   -----------------  -----------------  -----------------  -----------------
         C            0.172745782659    -0.000595165872     0.000904917362    12.000000000000
         C           -0.535171417341    -1.033814765872     0.689954017362    12.000000000000
         C           -1.956036317341    -1.021880165872     0.677452317362    12.000000000000
         C           -2.658432317341     0.006814734128    -0.012957282638    12.000000000000
         C           -1.943956017341     1.031812634128    -0.696513782638    12.000000000000
         C           -0.523036217341     1.036331734128    -0.695028982638    12.000000000000
         C            1.704216082659    -0.004489165872     0.008274917362    12.000000000000
         N            2.395621182659    -0.669220165872    -0.979375882638    14.003074004430
         N            2.388608182659     0.657578634128     1.002552217362    14.003074004430
         H            0.013823982659    -1.832134065872     1.225655917362     1.007825032230
         H           -2.513207817341    -1.818108765872     1.208408517362     1.007825032230
         H           -3.766242917341     0.009698334128    -0.018378382638     1.007825032230
         H           -2.491787817341     1.830902234128    -1.232865982638     1.007825032230
         H            0.035419082659     1.831601034128    -1.225460882638     1.007825032230
         H            3.449116482659    -0.707684465872    -1.026112982638     1.007825032230
         H            1.855263082659    -1.170708065872    -1.731234982638     1.007825032230
         H            3.441786982659     0.689053234128     1.060287117362     1.007825032230
         H            1.843342782659     1.160295134128     1.750047317362     1.007825032230

  Nuclear repulsion =  405.191993568521241

  ==> Basis Set <==

  Basis Set: STO-3G
    Blend: STO-3G
    Number of shells: 36
    Number of basis function: 54
    Number of Cartesian functions: 54
    Spherical Harmonics?: true
    Max angular momentum: 1

  ==> DFJKGrad: Density-Fitted SCF Gradients <==

    Gradient:                    1
    J tasked:                  Yes
    K tasked:                   No
    wK tasked:                  No
    OpenMP threads:              1
    Integrals threads:           1
    Memory [MiB]:            35762
    Schwarz Cutoff:          0E+00
    Fitting Condition:       1E-10

   => Auxiliary Basis Set <=

  Basis Set: (STO-3G AUX)
    Blend: DEF2-SVP-JKFIT
    Number of shells: 279
    Number of basis function: 841
    Number of Cartesian functions: 989
    Spherical Harmonics?: true
    Max angular momentum: 4

  ==> DFT Potential <==

   => Composite Functional: BLYP <= 

    BLYP GGA Exchange-Correlation Functional

    P.J. Stephens et. al., J. Phys. Chem., 98, 11623-11627, 1994
    B. Miehlich et. al., Chem. Phys. Lett., 157(3), 200-206 1989


    Deriv               =              1
    GGA                 =           TRUE
    Meta                =          FALSE

    Exchange Hybrid     =          FALSE
    MP2 Hybrid          =          FALSE

   => Exchange Functionals <=

    1.0000     XC_GGA_X_B88

   => Correlation Functionals <=

    1.0000     XC_GGA_C_LYP

   => Molecular Quadrature <=

    Radial Scheme          =       TREUTLER
    Pruning Scheme         =           FLAT
    Nuclear Scheme         =       TREUTLER

    BS radius alpha        =              1
    Pruning alpha          =              1
    Radial Points          =             75
    Spherical Points       =            302
    Total Points           =         395884
    Total Blocks           =           2945
    Max Points             =            256
    Max Functions          =             51


  -Total Gradient:
     Atom            X                  Y                   Z
    ------   -----------------  -----------------  -----------------
       1        0.000022171932    -0.000003706562     0.000060450748
       2       -0.000014732330     0.000052056986    -0.000015562136
       3       -0.000059242494    -0.000060499235     0.000027033553
       4        0.000106026442    -0.000007839199     0.000011469345
       5       -0.000032282487     0.000069474880    -0.000058053919
       6       -0.000048458236    -0.000021842148     0.000024975525
       7       -0.000135408404    -0.000049317647    -0.000044676536
       8        0.000145963300     0.000116569277     0.000089475389
       9        0.000013533043     0.000001263112    -0.000064467896
      10       -0.000007221374    -0.000001533532    -0.000004161508
      11       -0.000000352427    -0.000007041844     0.000005551414
      12        0.000007901926     0.000000241219     0.000000488569
      13       -0.000005064292     0.000006702048    -0.000003399408
      14       -0.000003746475    -0.000005269656     0.000000156573
      15        0.000000488072    -0.000066518045    -0.000073641286
      16       -0.000003436321    -0.000000346931     0.000027965567
      17       -0.000000835755    -0.000010552636     0.000016543703
      18       -0.000007494156    -0.000011689896    -0.000000534590


*** tstop() called on aaojha at Fri May 14 10:03:33 2021
Module time:
	user time   =       2.00 seconds =       0.03 minutes
	system time =       0.00 seconds =       0.00 minutes
	total time  =          2 seconds =       0.03 minutes
Total time:
	user time   =       8.76 seconds =       0.15 minutes
	system time =       0.22 seconds =       0.00 minutes
	total time  =          9 seconds =       0.15 minutes

    Psi4 stopped on: Friday, 14 May 2021 10:03AM
    Psi4 wall time for execution: 0:00:09.04

*** Psi4 exiting successfully. Buy a developer a beer!
