
Host: aaojha

Timers On : Fri May 14 10:12:43 2021
Timers Off: Fri May 14 10:12:52 2021

Wall Time:        9.23 seconds

                                                       Time (seconds)
Module                                       User      System        Wall        Calls
V: Grid                             :      1.183u      0.017s      0.722w      1 calls
DFH: sparsity prep                  :      0.033u      0.000s      0.013w      1 calls
DFH: initialize()                   :      0.617u      0.033s      0.386w      1 calls
DFH: AO Construction                :      0.250u      0.017s      0.155w      1 calls
DFH: AO-Met. Contraction            :      0.067u      0.000s      0.046w      1 calls
HF: Form core H                     :      0.000u      0.000s      0.002w      1 calls
HF: Form S/X                        :      0.000u      0.000s      0.000w      1 calls
HF: Guess                           :      0.250u      0.000s      0.153w      1 calls
SAD Guess                           :      0.233u      0.000s      0.146w      1 calls
HF: Form G                          :      7.967u      0.117s      4.862w     14 calls
RV: Form V                          :      7.950u      0.117s      4.842w     14 calls
Properties                          :      2.100u      0.033s      1.468w  44070 calls
Functional                          :      4.367u      0.083s      2.544w  44070 calls
V_xc                                :      2.083u      0.000s      1.284w  41132 calls
JK: D                               :      0.000u      0.000s      0.000w     14 calls
JK: USO2AO                          :      0.000u      0.000s      0.000w     14 calls
JK: JK                              :      0.017u      0.000s      0.019w     14 calls
DFH: compute_JK()                   :      0.017u      0.000s      0.019w     14 calls
DFH: Grabbing AOs                   :      0.000u      0.000s      0.000w     14 calls
DFH: compute_J                      :      0.017u      0.000s      0.019w     14 calls
JK: AO2USO                          :      0.000u      0.000s      0.000w     14 calls
HF: Form F                          :      0.000u      0.000s      0.000w     14 calls
HF: Form D                          :      0.000u      0.000s      0.000w     14 calls
HF: DIIS                            :      0.017u      0.000s      0.006w     13 calls
DIISManager::add_entry              :      0.000u      0.000s      0.001w     13 calls
DIISManager::extrapolate            :      0.017u      0.000s      0.001w     13 calls
bMatrix setup                       :      0.000u      0.000s      0.001w     13 calls
bMatrix pseudoinverse               :      0.017u      0.000s      0.000w     13 calls
New vector                          :      0.000u      0.000s      0.000w     13 calls
HF: Form C                          :      0.000u      0.000s      0.003w     13 calls
Grad: V T Perturb                   :      0.083u      0.000s      0.051w      1 calls
Grad: S                             :      0.000u      0.000s      0.001w      1 calls
Grad: JK                            :      1.850u      0.000s      1.115w      1 calls
JKGrad: Amn                         :      0.283u      0.000s      0.170w      1 calls
JKGrad: Awmn                        :      0.000u      0.000s      0.000w      1 calls
JKGrad: AB                          :      0.267u      0.000s      0.165w      1 calls
JKGrad: UV                          :      0.000u      0.000s      0.000w      1 calls
JKGrad: ABx                         :      0.133u      0.000s      0.076w      1 calls
JKGrad: Amnx                        :      1.133u      0.000s      0.681w      1 calls
Grad: XC                            :      1.350u      0.000s      0.810w      1 calls
V_xc gradient                       :      0.583u      0.000s      0.290w   2938 calls

--------------------------------------------------------------------------------------
V: Grid                             :      1.183u      0.017s      0.722w      1 calls
DFH: sparsity prep                  :      0.033u      0.000s      0.013w      1 calls
DFH: initialize()                   :      0.617u      0.033s      0.386w      1 calls
| DFH: AO Construction              :      0.250u      0.017s      0.155w      1 calls
| DFH: AO-Met. Contraction          :      0.067u      0.000s      0.046w      1 calls
HF: Form core H                     :      0.000u      0.000s      0.002w      1 calls
HF: Form S/X                        :      0.000u      0.000s      0.000w      1 calls
HF: Guess                           :      0.250u      0.000s      0.153w      1 calls
| SAD Guess                         :      0.233u      0.000s      0.146w      1 calls
HF: Form G                          :      7.967u      0.117s      4.862w     14 calls
| RV: Form V                        :      7.950u      0.117s      4.842w     14 calls
| | Properties                      :      1.583u      0.033s      1.123w  41132 calls
| | Functional                      :      4.133u      0.083s      2.374w  41132 calls
| | V_xc                            :      2.083u      0.000s      1.284w  41132 calls
| JK: D                             :      0.000u      0.000s      0.000w     14 calls
| JK: USO2AO                        :      0.000u      0.000s      0.000w     14 calls
| JK: JK                            :      0.017u      0.000s      0.019w     14 calls
| | DFH: compute_JK()               :      0.017u      0.000s      0.019w     14 calls
| | | DFH: Grabbing AOs             :      0.000u      0.000s      0.000w     14 calls
| | | DFH: compute_J                :      0.017u      0.000s      0.019w     14 calls
| JK: AO2USO                        :      0.000u      0.000s      0.000w     14 calls
HF: Form F                          :      0.000u      0.000s      0.000w     14 calls
HF: Form D                          :      0.000u      0.000s      0.000w     14 calls
HF: DIIS                            :      0.017u      0.000s      0.006w     13 calls
| DIISManager::add_entry            :      0.000u      0.000s      0.001w     13 calls
| DIISManager::extrapolate          :      0.017u      0.000s      0.001w     13 calls
| | bMatrix setup                   :      0.000u      0.000s      0.001w     13 calls
| | bMatrix pseudoinverse           :      0.017u      0.000s      0.000w     13 calls
| | New vector                      :      0.000u      0.000s      0.000w     13 calls
HF: Form C                          :      0.000u      0.000s      0.003w     13 calls
Grad: V T Perturb                   :      0.083u      0.000s      0.051w      1 calls
Grad: S                             :      0.000u      0.000s      0.001w      1 calls
Grad: JK                            :      1.850u      0.000s      1.115w      1 calls
| JKGrad: Amn                       :      0.283u      0.000s      0.170w      1 calls
| JKGrad: Awmn                      :      0.000u      0.000s      0.000w      1 calls
| JKGrad: AB                        :      0.267u      0.000s      0.165w      1 calls
| JKGrad: UV                        :      0.000u      0.000s      0.000w      1 calls
| JKGrad: ABx                       :      0.133u      0.000s      0.076w      1 calls
| JKGrad: Amnx                      :      1.133u      0.000s      0.681w      1 calls
Grad: XC                            :      1.350u      0.000s      0.810w      1 calls
| Properties                        :      0.517u      0.000s      0.345w   2938 calls
| Functional                        :      0.233u      0.000s      0.170w   2938 calls
| V_xc gradient                     :      0.583u      0.000s      0.290w   2938 calls

**************************************************************************************

Host: aaojha

Timers On : Fri May 14 10:12:52 2021
Timers Off: Fri May 14 10:13:01 2021

Wall Time:        9.30 seconds

                                                       Time (seconds)
Module                                       User      System        Wall        Calls
V: Grid                             :      1.183u      0.033s      0.732w      1 calls
DFH: sparsity prep                  :      0.017u      0.000s      0.012w      1 calls
DFH: initialize()                   :      0.633u      0.017s      0.386w      1 calls
DFH: AO Construction                :      0.250u      0.000s      0.155w      1 calls
DFH: AO-Met. Contraction            :      0.083u      0.017s      0.046w      1 calls
HF: Form core H                     :      0.000u      0.000s      0.002w      1 calls
HF: Form S/X                        :      0.000u      0.000s      0.000w      1 calls
HF: Guess                           :      0.250u      0.000s      0.153w      1 calls
SAD Guess                           :      0.233u      0.000s      0.146w      1 calls
HF: Form G                          :      8.033u      0.100s      4.895w     14 calls
RV: Form V                          :      8.000u      0.100s      4.874w     14 calls
Properties                          :      2.517u      0.033s      1.471w  44610 calls
Functional                          :      3.900u      0.067s      2.571w  44610 calls
V_xc                                :      2.400u      0.000s      1.292w  41636 calls
JK: D                               :      0.000u      0.000s      0.000w     14 calls
JK: USO2AO                          :      0.000u      0.000s      0.000w     14 calls
JK: JK                              :      0.033u      0.000s      0.020w     14 calls
DFH: compute_JK()                   :      0.033u      0.000s      0.020w     14 calls
DFH: Grabbing AOs                   :      0.000u      0.000s      0.000w     14 calls
DFH: compute_J                      :      0.017u      0.000s      0.020w     14 calls
JK: AO2USO                          :      0.000u      0.000s      0.000w     14 calls
HF: Form F                          :      0.000u      0.000s      0.000w     14 calls
HF: Form D                          :      0.000u      0.000s      0.000w     14 calls
HF: DIIS                            :      0.017u      0.000s      0.015w     13 calls
DIISManager::add_entry              :      0.000u      0.000s      0.001w     13 calls
DIISManager::extrapolate            :      0.000u      0.000s      0.011w     13 calls
bMatrix setup                       :      0.000u      0.000s      0.010w     13 calls
bMatrix pseudoinverse               :      0.000u      0.000s      0.000w     13 calls
New vector                          :      0.000u      0.000s      0.000w     13 calls
HF: Form C                          :      0.000u      0.000s      0.003w     13 calls
Grad: V T Perturb                   :      0.083u      0.000s      0.051w      1 calls
Grad: S                             :      0.000u      0.000s      0.001w      1 calls
Grad: JK                            :      1.833u      0.000s      1.123w      1 calls
JKGrad: Amn                         :      0.283u      0.000s      0.171w      1 calls
JKGrad: Awmn                        :      0.000u      0.000s      0.000w      1 calls
JKGrad: AB                          :      0.283u      0.000s      0.165w      1 calls
JKGrad: UV                          :      0.000u      0.000s      0.000w      1 calls
JKGrad: ABx                         :      0.117u      0.000s      0.074w      1 calls
JKGrad: Amnx                        :      1.133u      0.000s      0.682w      1 calls
Grad: XC                            :      1.350u      0.000s      0.814w      1 calls
V_xc gradient                       :      0.483u      0.000s      0.291w   2974 calls

--------------------------------------------------------------------------------------
V: Grid                             :      1.183u      0.033s      0.732w      1 calls
DFH: sparsity prep                  :      0.017u      0.000s      0.012w      1 calls
DFH: initialize()                   :      0.633u      0.017s      0.386w      1 calls
| DFH: AO Construction              :      0.250u      0.000s      0.155w      1 calls
| DFH: AO-Met. Contraction          :      0.083u      0.017s      0.046w      1 calls
HF: Form core H                     :      0.000u      0.000s      0.002w      1 calls
HF: Form S/X                        :      0.000u      0.000s      0.000w      1 calls
HF: Guess                           :      0.250u      0.000s      0.153w      1 calls
| SAD Guess                         :      0.233u      0.000s      0.146w      1 calls
HF: Form G                          :      8.033u      0.100s      4.895w     14 calls
| RV: Form V                        :      8.000u      0.100s      4.874w     14 calls
| | Properties                      :      1.833u      0.033s      1.126w  41636 calls
| | Functional                      :      3.733u      0.067s      2.398w  41636 calls
| | V_xc                            :      2.400u      0.000s      1.292w  41636 calls
| JK: D                             :      0.000u      0.000s      0.000w     14 calls
| JK: USO2AO                        :      0.000u      0.000s      0.000w     14 calls
| JK: JK                            :      0.033u      0.000s      0.020w     14 calls
| | DFH: compute_JK()               :      0.033u      0.000s      0.020w     14 calls
| | | DFH: Grabbing AOs             :      0.000u      0.000s      0.000w     14 calls
| | | DFH: compute_J                :      0.017u      0.000s      0.020w     14 calls
| JK: AO2USO                        :      0.000u      0.000s      0.000w     14 calls
HF: Form F                          :      0.000u      0.000s      0.000w     14 calls
HF: Form D                          :      0.000u      0.000s      0.000w     14 calls
HF: DIIS                            :      0.017u      0.000s      0.015w     13 calls
| DIISManager::add_entry            :      0.000u      0.000s      0.001w     13 calls
| DIISManager::extrapolate          :      0.000u      0.000s      0.011w     13 calls
| | bMatrix setup                   :      0.000u      0.000s      0.010w     13 calls
| | bMatrix pseudoinverse           :      0.000u      0.000s      0.000w     13 calls
| | New vector                      :      0.000u      0.000s      0.000w     13 calls
HF: Form C                          :      0.000u      0.000s      0.003w     13 calls
Grad: V T Perturb                   :      0.083u      0.000s      0.051w      1 calls
Grad: S                             :      0.000u      0.000s      0.001w      1 calls
Grad: JK                            :      1.833u      0.000s      1.123w      1 calls
| JKGrad: Amn                       :      0.283u      0.000s      0.171w      1 calls
| JKGrad: Awmn                      :      0.000u      0.000s      0.000w      1 calls
| JKGrad: AB                        :      0.283u      0.000s      0.165w      1 calls
| JKGrad: UV                        :      0.000u      0.000s      0.000w      1 calls
| JKGrad: ABx                       :      0.117u      0.000s      0.074w      1 calls
| JKGrad: Amnx                      :      1.133u      0.000s      0.682w      1 calls
Grad: XC                            :      1.350u      0.000s      0.814w      1 calls
| Properties                        :      0.683u      0.000s      0.345w   2974 calls
| Functional                        :      0.167u      0.000s      0.173w   2974 calls
| V_xc gradient                     :      0.483u      0.000s      0.291w   2974 calls

**************************************************************************************

Host: aaojha

Timers On : Fri May 14 10:13:02 2021
Timers Off: Fri May 14 10:13:11 2021

Wall Time:        9.34 seconds

                                                       Time (seconds)
Module                                       User      System        Wall        Calls
V: Grid                             :      1.183u      0.017s      0.728w      1 calls
DFH: sparsity prep                  :      0.017u      0.000s      0.012w      1 calls
DFH: initialize()                   :      0.617u      0.033s      0.388w      1 calls
DFH: AO Construction                :      0.250u      0.000s      0.156w      1 calls
DFH: AO-Met. Contraction            :      0.067u      0.000s      0.046w      1 calls
HF: Form core H                     :      0.000u      0.000s      0.002w      1 calls
HF: Form S/X                        :      0.000u      0.000s      0.001w      1 calls
HF: Guess                           :      0.283u      0.000s      0.170w      1 calls
SAD Guess                           :      0.250u      0.000s      0.153w      1 calls
HF: Form G                          :      8.050u      0.117s      4.894w     14 calls
RV: Form V                          :      8.033u      0.117s      4.874w     14 calls
Properties                          :      2.417u      0.033s      1.491w  44715 calls
Functional                          :      4.483u      0.050s      2.578w  44715 calls
V_xc                                :      1.750u      0.033s      1.284w  41734 calls
JK: D                               :      0.000u      0.000s      0.000w     14 calls
JK: USO2AO                          :      0.000u      0.000s      0.000w     14 calls
JK: JK                              :      0.017u      0.000s      0.019w     14 calls
DFH: compute_JK()                   :      0.017u      0.000s      0.019w     14 calls
DFH: Grabbing AOs                   :      0.000u      0.000s      0.000w     14 calls
DFH: compute_J                      :      0.017u      0.000s      0.019w     14 calls
JK: AO2USO                          :      0.000u      0.000s      0.000w     14 calls
HF: Form F                          :      0.000u      0.000s      0.000w     14 calls
HF: Form D                          :      0.000u      0.000s      0.000w     14 calls
HF: DIIS                            :      0.000u      0.000s      0.006w     13 calls
DIISManager::add_entry              :      0.000u      0.000s      0.001w     13 calls
DIISManager::extrapolate            :      0.000u      0.000s      0.001w     13 calls
bMatrix setup                       :      0.000u      0.000s      0.001w     13 calls
bMatrix pseudoinverse               :      0.000u      0.000s      0.000w     13 calls
New vector                          :      0.000u      0.000s      0.000w     13 calls
HF: Form C                          :      0.017u      0.000s      0.003w     13 calls
Grad: V T Perturb                   :      0.083u      0.000s      0.051w      1 calls
Grad: S                             :      0.000u      0.000s      0.001w      1 calls
Grad: JK                            :      1.850u      0.000s      1.128w      1 calls
JKGrad: Amn                         :      0.283u      0.000s      0.172w      1 calls
JKGrad: Awmn                        :      0.000u      0.000s      0.000w      1 calls
JKGrad: AB                          :      0.283u      0.000s      0.166w      1 calls
JKGrad: UV                          :      0.000u      0.000s      0.000w      1 calls
JKGrad: ABx                         :      0.117u      0.000s      0.074w      1 calls
JKGrad: Amnx                        :      1.150u      0.000s      0.684w      1 calls
Grad: XC                            :      1.383u      0.000s      0.839w      1 calls
V_xc gradient                       :      0.600u      0.000s      0.297w   2981 calls

--------------------------------------------------------------------------------------
V: Grid                             :      1.183u      0.017s      0.728w      1 calls
DFH: sparsity prep                  :      0.017u      0.000s      0.012w      1 calls
DFH: initialize()                   :      0.617u      0.033s      0.388w      1 calls
| DFH: AO Construction              :      0.250u      0.000s      0.156w      1 calls
| DFH: AO-Met. Contraction          :      0.067u      0.000s      0.046w      1 calls
HF: Form core H                     :      0.000u      0.000s      0.002w      1 calls
HF: Form S/X                        :      0.000u      0.000s      0.001w      1 calls
HF: Guess                           :      0.283u      0.000s      0.170w      1 calls
| SAD Guess                         :      0.250u      0.000s      0.153w      1 calls
HF: Form G                          :      8.050u      0.117s      4.894w     14 calls
| RV: Form V                        :      8.033u      0.117s      4.874w     14 calls
| | Properties                      :      1.850u      0.033s      1.129w  41734 calls
| | Functional                      :      4.267u      0.050s      2.402w  41734 calls
| | V_xc                            :      1.750u      0.033s      1.284w  41734 calls
| JK: D                             :      0.000u      0.000s      0.000w     14 calls
| JK: USO2AO                        :      0.000u      0.000s      0.000w     14 calls
| JK: JK                            :      0.017u      0.000s      0.019w     14 calls
| | DFH: compute_JK()               :      0.017u      0.000s      0.019w     14 calls
| | | DFH: Grabbing AOs             :      0.000u      0.000s      0.000w     14 calls
| | | DFH: compute_J                :      0.017u      0.000s      0.019w     14 calls
| JK: AO2USO                        :      0.000u      0.000s      0.000w     14 calls
HF: Form F                          :      0.000u      0.000s      0.000w     14 calls
HF: Form D                          :      0.000u      0.000s      0.000w     14 calls
HF: DIIS                            :      0.000u      0.000s      0.006w     13 calls
| DIISManager::add_entry            :      0.000u      0.000s      0.001w     13 calls
| DIISManager::extrapolate          :      0.000u      0.000s      0.001w     13 calls
| | bMatrix setup                   :      0.000u      0.000s      0.001w     13 calls
| | bMatrix pseudoinverse           :      0.000u      0.000s      0.000w     13 calls
| | New vector                      :      0.000u      0.000s      0.000w     13 calls
HF: Form C                          :      0.017u      0.000s      0.003w     13 calls
Grad: V T Perturb                   :      0.083u      0.000s      0.051w      1 calls
Grad: S                             :      0.000u      0.000s      0.001w      1 calls
Grad: JK                            :      1.850u      0.000s      1.128w      1 calls
| JKGrad: Amn                       :      0.283u      0.000s      0.172w      1 calls
| JKGrad: Awmn                      :      0.000u      0.000s      0.000w      1 calls
| JKGrad: AB                        :      0.283u      0.000s      0.166w      1 calls
| JKGrad: UV                        :      0.000u      0.000s      0.000w      1 calls
| JKGrad: ABx                       :      0.117u      0.000s      0.074w      1 calls
| JKGrad: Amnx                      :      1.150u      0.000s      0.684w      1 calls
Grad: XC                            :      1.383u      0.000s      0.839w      1 calls
| Properties                        :      0.567u      0.000s      0.362w   2981 calls
| Functional                        :      0.217u      0.000s      0.175w   2981 calls
| V_xc gradient                     :      0.600u      0.000s      0.297w   2981 calls

**************************************************************************************

Host: aaojha

Timers On : Fri May 14 10:13:11 2021
Timers Off: Fri May 14 10:13:21 2021

Wall Time:        9.36 seconds

                                                       Time (seconds)
Module                                       User      System        Wall        Calls
V: Grid                             :      1.217u      0.000s      0.736w      1 calls
DFH: sparsity prep                  :      0.033u      0.000s      0.012w      1 calls
DFH: initialize()                   :      0.617u      0.033s      0.385w      1 calls
DFH: AO Construction                :      0.250u      0.000s      0.154w      1 calls
DFH: AO-Met. Contraction            :      0.083u      0.000s      0.046w      1 calls
HF: Form core H                     :      0.000u      0.000s      0.002w      1 calls
HF: Form S/X                        :      0.000u      0.000s      0.000w      1 calls
HF: Guess                           :      0.250u      0.000s      0.153w      1 calls
SAD Guess                           :      0.233u      0.000s      0.146w      1 calls
HF: Form G                          :      8.133u      0.117s      4.933w     14 calls
RV: Form V                          :      8.117u      0.117s      4.913w     14 calls
Properties                          :      2.483u      0.000s      1.486w  44730 calls
Functional                          :      4.500u      0.100s      2.594w  44730 calls
V_xc                                :      2.067u      0.017s      1.302w  41748 calls
JK: D                               :      0.000u      0.000s      0.000w     14 calls
JK: USO2AO                          :      0.000u      0.000s      0.000w     14 calls
JK: JK                              :      0.017u      0.000s      0.019w     14 calls
DFH: compute_JK()                   :      0.017u      0.000s      0.019w     14 calls
DFH: Grabbing AOs                   :      0.000u      0.000s      0.000w     14 calls
DFH: compute_J                      :      0.017u      0.000s      0.019w     14 calls
JK: AO2USO                          :      0.000u      0.000s      0.000w     14 calls
HF: Form F                          :      0.000u      0.000s      0.000w     14 calls
HF: Form D                          :      0.000u      0.000s      0.000w     14 calls
HF: DIIS                            :      0.017u      0.000s      0.006w     13 calls
DIISManager::add_entry              :      0.000u      0.000s      0.001w     13 calls
DIISManager::extrapolate            :      0.000u      0.000s      0.001w     13 calls
bMatrix setup                       :      0.000u      0.000s      0.001w     13 calls
bMatrix pseudoinverse               :      0.000u      0.000s      0.000w     13 calls
New vector                          :      0.000u      0.000s      0.000w     13 calls
HF: Form C                          :      0.000u      0.000s      0.003w     13 calls
Grad: V T Perturb                   :      0.083u      0.000s      0.051w      1 calls
Grad: S                             :      0.000u      0.000s      0.001w      1 calls
Grad: JK                            :      1.867u      0.000s      1.134w      1 calls
JKGrad: Amn                         :      0.317u      0.000s      0.183w      1 calls
JKGrad: Awmn                        :      0.000u      0.000s      0.000w      1 calls
JKGrad: AB                          :      0.267u      0.000s      0.164w      1 calls
JKGrad: UV                          :      0.000u      0.000s      0.000w      1 calls
JKGrad: ABx                         :      0.117u      0.000s      0.074w      1 calls
JKGrad: Amnx                        :      1.150u      0.000s      0.681w      1 calls
Grad: XC                            :      1.367u      0.000s      0.832w      1 calls
V_xc gradient                       :      0.317u      0.000s      0.299w   2982 calls

--------------------------------------------------------------------------------------
V: Grid                             :      1.217u      0.000s      0.736w      1 calls
DFH: sparsity prep                  :      0.033u      0.000s      0.012w      1 calls
DFH: initialize()                   :      0.617u      0.033s      0.385w      1 calls
| DFH: AO Construction              :      0.250u      0.000s      0.154w      1 calls
| DFH: AO-Met. Contraction          :      0.083u      0.000s      0.046w      1 calls
HF: Form core H                     :      0.000u      0.000s      0.002w      1 calls
HF: Form S/X                        :      0.000u      0.000s      0.000w      1 calls
HF: Guess                           :      0.250u      0.000s      0.153w      1 calls
| SAD Guess                         :      0.233u      0.000s      0.146w      1 calls
HF: Form G                          :      8.133u      0.117s      4.933w     14 calls
| RV: Form V                        :      8.117u      0.117s      4.913w     14 calls
| | Properties                      :      1.817u      0.000s      1.133w  41748 calls
| | Functional                      :      4.150u      0.100s      2.419w  41748 calls
| | V_xc                            :      2.067u      0.017s      1.302w  41748 calls
| JK: D                             :      0.000u      0.000s      0.000w     14 calls
| JK: USO2AO                        :      0.000u      0.000s      0.000w     14 calls
| JK: JK                            :      0.017u      0.000s      0.019w     14 calls
| | DFH: compute_JK()               :      0.017u      0.000s      0.019w     14 calls
| | | DFH: Grabbing AOs             :      0.000u      0.000s      0.000w     14 calls
| | | DFH: compute_J                :      0.017u      0.000s      0.019w     14 calls
| JK: AO2USO                        :      0.000u      0.000s      0.000w     14 calls
HF: Form F                          :      0.000u      0.000s      0.000w     14 calls
HF: Form D                          :      0.000u      0.000s      0.000w     14 calls
HF: DIIS                            :      0.017u      0.000s      0.006w     13 calls
| DIISManager::add_entry            :      0.000u      0.000s      0.001w     13 calls
| DIISManager::extrapolate          :      0.000u      0.000s      0.001w     13 calls
| | bMatrix setup                   :      0.000u      0.000s      0.001w     13 calls
| | bMatrix pseudoinverse           :      0.000u      0.000s      0.000w     13 calls
| | New vector                      :      0.000u      0.000s      0.000w     13 calls
HF: Form C                          :      0.000u      0.000s      0.003w     13 calls
Grad: V T Perturb                   :      0.083u      0.000s      0.051w      1 calls
Grad: S                             :      0.000u      0.000s      0.001w      1 calls
Grad: JK                            :      1.867u      0.000s      1.134w      1 calls
| JKGrad: Amn                       :      0.317u      0.000s      0.183w      1 calls
| JKGrad: Awmn                      :      0.000u      0.000s      0.000w      1 calls
| JKGrad: AB                        :      0.267u      0.000s      0.164w      1 calls
| JKGrad: UV                        :      0.000u      0.000s      0.000w      1 calls
| JKGrad: ABx                       :      0.117u      0.000s      0.074w      1 calls
| JKGrad: Amnx                      :      1.150u      0.000s      0.681w      1 calls
Grad: XC                            :      1.367u      0.000s      0.832w      1 calls
| Properties                        :      0.667u      0.000s      0.353w   2982 calls
| Functional                        :      0.350u      0.000s      0.175w   2982 calls
| V_xc gradient                     :      0.317u      0.000s      0.299w   2982 calls

**************************************************************************************

Host: aaojha

Timers On : Fri May 14 10:13:21 2021
Timers Off: Fri May 14 10:13:30 2021

Wall Time:        9.47 seconds

                                                       Time (seconds)
Module                                       User      System        Wall        Calls
V: Grid                             :      1.200u      0.017s      0.736w      1 calls
DFH: sparsity prep                  :      0.017u      0.000s      0.013w      1 calls
DFH: initialize()                   :      0.633u      0.017s      0.397w      1 calls
DFH: AO Construction                :      0.267u      0.000s      0.159w      1 calls
DFH: AO-Met. Contraction            :      0.067u      0.000s      0.047w      1 calls
HF: Form core H                     :      0.000u      0.000s      0.002w      1 calls
HF: Form S/X                        :      0.000u      0.000s      0.000w      1 calls
HF: Guess                           :      0.250u      0.000s      0.153w      1 calls
SAD Guess                           :      0.233u      0.000s      0.146w      1 calls
HF: Form G                          :      8.133u      0.100s      4.945w     14 calls
RV: Form V                          :      8.117u      0.100s      4.924w     14 calls
Properties                          :      2.317u      0.017s      1.489w  44655 calls
Functional                          :      4.483u      0.067s      2.598w  44655 calls
V_xc                                :      2.083u      0.033s      1.303w  41678 calls
JK: D                               :      0.000u      0.000s      0.000w     14 calls
JK: USO2AO                          :      0.000u      0.000s      0.000w     14 calls
JK: JK                              :      0.017u      0.000s      0.020w     14 calls
DFH: compute_JK()                   :      0.017u      0.000s      0.020w     14 calls
DFH: Grabbing AOs                   :      0.000u      0.000s      0.000w     14 calls
DFH: compute_J                      :      0.017u      0.000s      0.020w     14 calls
JK: AO2USO                          :      0.000u      0.000s      0.000w     14 calls
HF: Form F                          :      0.000u      0.000s      0.000w     14 calls
HF: Form D                          :      0.000u      0.000s      0.000w     14 calls
HF: DIIS                            :      0.017u      0.000s      0.015w     13 calls
DIISManager::add_entry              :      0.000u      0.000s      0.001w     13 calls
DIISManager::extrapolate            :      0.000u      0.000s      0.011w     13 calls
bMatrix setup                       :      0.000u      0.000s      0.010w     13 calls
bMatrix pseudoinverse               :      0.000u      0.000s      0.000w     13 calls
New vector                          :      0.000u      0.000s      0.000w     13 calls
HF: Form C                          :      0.000u      0.000s      0.003w     13 calls
Grad: V T Perturb                   :      0.083u      0.000s      0.052w      1 calls
Grad: S                             :      0.000u      0.000s      0.001w      1 calls
Grad: JK                            :      1.917u      0.000s      1.166w      1 calls
JKGrad: Amn                         :      0.317u      0.000s      0.185w      1 calls
JKGrad: Awmn                        :      0.000u      0.000s      0.000w      1 calls
JKGrad: AB                          :      0.283u      0.000s      0.169w      1 calls
JKGrad: UV                          :      0.000u      0.000s      0.000w      1 calls
JKGrad: ABx                         :      0.117u      0.000s      0.076w      1 calls
JKGrad: Amnx                        :      1.183u      0.000s      0.704w      1 calls
Grad: XC                            :      1.350u      0.017s      0.829w      1 calls
V_xc gradient                       :      0.433u      0.000s      0.297w   2977 calls

--------------------------------------------------------------------------------------
V: Grid                             :      1.200u      0.017s      0.736w      1 calls
DFH: sparsity prep                  :      0.017u      0.000s      0.013w      1 calls
DFH: initialize()                   :      0.633u      0.017s      0.397w      1 calls
| DFH: AO Construction              :      0.267u      0.000s      0.159w      1 calls
| DFH: AO-Met. Contraction          :      0.067u      0.000s      0.047w      1 calls
HF: Form core H                     :      0.000u      0.000s      0.002w      1 calls
HF: Form S/X                        :      0.000u      0.000s      0.000w      1 calls
HF: Guess                           :      0.250u      0.000s      0.153w      1 calls
| SAD Guess                         :      0.233u      0.000s      0.146w      1 calls
HF: Form G                          :      8.133u      0.100s      4.945w     14 calls
| RV: Form V                        :      8.117u      0.100s      4.924w     14 calls
| | Properties                      :      1.700u      0.017s      1.137w  41678 calls
| | Functional                      :      4.200u      0.050s      2.423w  41678 calls
| | V_xc                            :      2.083u      0.033s      1.303w  41678 calls
| JK: D                             :      0.000u      0.000s      0.000w     14 calls
| JK: USO2AO                        :      0.000u      0.000s      0.000w     14 calls
| JK: JK                            :      0.017u      0.000s      0.020w     14 calls
| | DFH: compute_JK()               :      0.017u      0.000s      0.020w     14 calls
| | | DFH: Grabbing AOs             :      0.000u      0.000s      0.000w     14 calls
| | | DFH: compute_J                :      0.017u      0.000s      0.020w     14 calls
| JK: AO2USO                        :      0.000u      0.000s      0.000w     14 calls
HF: Form F                          :      0.000u      0.000s      0.000w     14 calls
HF: Form D                          :      0.000u      0.000s      0.000w     14 calls
HF: DIIS                            :      0.017u      0.000s      0.015w     13 calls
| DIISManager::add_entry            :      0.000u      0.000s      0.001w     13 calls
| DIISManager::extrapolate          :      0.000u      0.000s      0.011w     13 calls
| | bMatrix setup                   :      0.000u      0.000s      0.010w     13 calls
| | bMatrix pseudoinverse           :      0.000u      0.000s      0.000w     13 calls
| | New vector                      :      0.000u      0.000s      0.000w     13 calls
HF: Form C                          :      0.000u      0.000s      0.003w     13 calls
Grad: V T Perturb                   :      0.083u      0.000s      0.052w      1 calls
Grad: S                             :      0.000u      0.000s      0.001w      1 calls
Grad: JK                            :      1.917u      0.000s      1.166w      1 calls
| JKGrad: Amn                       :      0.317u      0.000s      0.185w      1 calls
| JKGrad: Awmn                      :      0.000u      0.000s      0.000w      1 calls
| JKGrad: AB                        :      0.283u      0.000s      0.169w      1 calls
| JKGrad: UV                        :      0.000u      0.000s      0.000w      1 calls
| JKGrad: ABx                       :      0.117u      0.000s      0.076w      1 calls
| JKGrad: Amnx                      :      1.183u      0.000s      0.704w      1 calls
Grad: XC                            :      1.350u      0.017s      0.829w      1 calls
| Properties                        :      0.617u      0.000s      0.352w   2977 calls
| Functional                        :      0.283u      0.017s      0.175w   2977 calls
| V_xc gradient                     :      0.433u      0.000s      0.297w   2977 calls

**************************************************************************************

Host: aaojha

Timers On : Fri May 14 10:13:31 2021
Timers Off: Fri May 14 10:13:40 2021

Wall Time:        9.38 seconds

                                                       Time (seconds)
Module                                       User      System        Wall        Calls
V: Grid                             :      1.217u      0.033s      0.758w      1 calls
DFH: sparsity prep                  :      0.017u      0.000s      0.012w      1 calls
DFH: initialize()                   :      0.650u      0.017s      0.389w      1 calls
DFH: AO Construction                :      0.267u      0.000s      0.156w      1 calls
DFH: AO-Met. Contraction            :      0.083u      0.000s      0.046w      1 calls
HF: Form core H                     :      0.000u      0.000s      0.002w      1 calls
HF: Form S/X                        :      0.017u      0.000s      0.000w      1 calls
HF: Guess                           :      0.283u      0.000s      0.201w      1 calls
SAD Guess                           :      0.283u      0.000s      0.194w      1 calls
HF: Form G                          :      8.050u      0.150s      4.898w     14 calls
RV: Form V                          :      8.017u      0.150s      4.878w     14 calls
Properties                          :      2.550u      0.033s      1.465w  44865 calls
Functional                          :      3.967u      0.050s      2.585w  44865 calls
V_xc                                :      2.183u      0.067s      1.288w  41874 calls
JK: D                               :      0.000u      0.000s      0.000w     14 calls
JK: USO2AO                          :      0.000u      0.000s      0.000w     14 calls
JK: JK                              :      0.033u      0.000s      0.019w     14 calls
DFH: compute_JK()                   :      0.033u      0.000s      0.019w     14 calls
DFH: Grabbing AOs                   :      0.000u      0.000s      0.000w     14 calls
DFH: compute_J                      :      0.033u      0.000s      0.019w     14 calls
JK: AO2USO                          :      0.000u      0.000s      0.000w     14 calls
HF: Form F                          :      0.000u      0.000s      0.000w     14 calls
HF: Form D                          :      0.000u      0.000s      0.000w     14 calls
HF: DIIS                            :      0.000u      0.000s      0.006w     13 calls
DIISManager::add_entry              :      0.000u      0.000s      0.001w     13 calls
DIISManager::extrapolate            :      0.000u      0.000s      0.001w     13 calls
bMatrix setup                       :      0.000u      0.000s      0.001w     13 calls
bMatrix pseudoinverse               :      0.000u      0.000s      0.000w     13 calls
New vector                          :      0.000u      0.000s      0.000w     13 calls
HF: Form C                          :      0.000u      0.000s      0.003w     13 calls
Grad: V T Perturb                   :      0.083u      0.000s      0.051w      1 calls
Grad: S                             :      0.000u      0.000s      0.001w      1 calls
Grad: JK                            :      1.850u      0.000s      1.114w      1 calls
JKGrad: Amn                         :      0.283u      0.000s      0.171w      1 calls
JKGrad: Awmn                        :      0.000u      0.000s      0.000w      1 calls
JKGrad: AB                          :      0.267u      0.000s      0.164w      1 calls
JKGrad: UV                          :      0.000u      0.000s      0.000w      1 calls
JKGrad: ABx                         :      0.117u      0.000s      0.073w      1 calls
JKGrad: Amnx                        :      1.150u      0.000s      0.681w      1 calls
Grad: XC                            :      1.350u      0.017s      0.820w      1 calls
V_xc gradient                       :      0.533u      0.017s      0.296w   2991 calls

--------------------------------------------------------------------------------------
V: Grid                             :      1.217u      0.033s      0.758w      1 calls
DFH: sparsity prep                  :      0.017u      0.000s      0.012w      1 calls
DFH: initialize()                   :      0.650u      0.017s      0.389w      1 calls
| DFH: AO Construction              :      0.267u      0.000s      0.156w      1 calls
| DFH: AO-Met. Contraction          :      0.083u      0.000s      0.046w      1 calls
HF: Form core H                     :      0.000u      0.000s      0.002w      1 calls
HF: Form S/X                        :      0.017u      0.000s      0.000w      1 calls
HF: Guess                           :      0.283u      0.000s      0.201w      1 calls
| SAD Guess                         :      0.283u      0.000s      0.194w      1 calls
HF: Form G                          :      8.050u      0.150s      4.898w     14 calls
| RV: Form V                        :      8.017u      0.150s      4.878w     14 calls
| | Properties                      :      2.000u      0.033s      1.119w  41874 calls
| | Functional                      :      3.717u      0.050s      2.412w  41874 calls
| | V_xc                            :      2.183u      0.067s      1.288w  41874 calls
| JK: D                             :      0.000u      0.000s      0.000w     14 calls
| JK: USO2AO                        :      0.000u      0.000s      0.000w     14 calls
| JK: JK                            :      0.033u      0.000s      0.019w     14 calls
| | DFH: compute_JK()               :      0.033u      0.000s      0.019w     14 calls
| | | DFH: Grabbing AOs             :      0.000u      0.000s      0.000w     14 calls
| | | DFH: compute_J                :      0.033u      0.000s      0.019w     14 calls
| JK: AO2USO                        :      0.000u      0.000s      0.000w     14 calls
HF: Form F                          :      0.000u      0.000s      0.000w     14 calls
HF: Form D                          :      0.000u      0.000s      0.000w     14 calls
HF: DIIS                            :      0.000u      0.000s      0.006w     13 calls
| DIISManager::add_entry            :      0.000u      0.000s      0.001w     13 calls
| DIISManager::extrapolate          :      0.000u      0.000s      0.001w     13 calls
| | bMatrix setup                   :      0.000u      0.000s      0.001w     13 calls
| | bMatrix pseudoinverse           :      0.000u      0.000s      0.000w     13 calls
| | New vector                      :      0.000u      0.000s      0.000w     13 calls
HF: Form C                          :      0.000u      0.000s      0.003w     13 calls
Grad: V T Perturb                   :      0.083u      0.000s      0.051w      1 calls
Grad: S                             :      0.000u      0.000s      0.001w      1 calls
Grad: JK                            :      1.850u      0.000s      1.114w      1 calls
| JKGrad: Amn                       :      0.283u      0.000s      0.171w      1 calls
| JKGrad: Awmn                      :      0.000u      0.000s      0.000w      1 calls
| JKGrad: AB                        :      0.267u      0.000s      0.164w      1 calls
| JKGrad: UV                        :      0.000u      0.000s      0.000w      1 calls
| JKGrad: ABx                       :      0.117u      0.000s      0.073w      1 calls
| JKGrad: Amnx                      :      1.150u      0.000s      0.681w      1 calls
Grad: XC                            :      1.350u      0.017s      0.820w      1 calls
| Properties                        :      0.550u      0.000s      0.346w   2991 calls
| Functional                        :      0.250u      0.000s      0.173w   2991 calls
| V_xc gradient                     :      0.533u      0.017s      0.296w   2991 calls

**************************************************************************************

Host: aaojha

Timers On : Fri May 14 10:13:40 2021
Timers Off: Fri May 14 10:13:50 2021

Wall Time:        9.63 seconds

                                                       Time (seconds)
Module                                       User      System        Wall        Calls
V: Grid                             :      1.250u      0.017s      0.760w      1 calls
DFH: sparsity prep                  :      0.033u      0.000s      0.013w      1 calls
DFH: initialize()                   :      0.633u      0.017s      0.390w      1 calls
DFH: AO Construction                :      0.250u      0.017s      0.157w      1 calls
DFH: AO-Met. Contraction            :      0.083u      0.000s      0.046w      1 calls
HF: Form core H                     :      0.000u      0.000s      0.002w      1 calls
HF: Form S/X                        :      0.000u      0.000s      0.000w      1 calls
HF: Guess                           :      0.267u      0.000s      0.160w      1 calls
SAD Guess                           :      0.267u      0.000s      0.153w      1 calls
HF: Form G                          :      8.250u      0.167s      5.059w     14 calls
RV: Form V                          :      8.217u      0.167s      5.039w     14 calls
Properties                          :      2.517u      0.050s      1.501w  44985 calls
Functional                          :      4.300u      0.083s      2.671w  44985 calls
V_xc                                :      2.233u      0.033s      1.328w  41986 calls
JK: D                               :      0.017u      0.000s      0.000w     14 calls
JK: USO2AO                          :      0.000u      0.000s      0.000w     14 calls
JK: JK                              :      0.017u      0.000s      0.019w     14 calls
DFH: compute_JK()                   :      0.017u      0.000s      0.019w     14 calls
DFH: Grabbing AOs                   :      0.000u      0.000s      0.000w     14 calls
DFH: compute_J                      :      0.017u      0.000s      0.019w     14 calls
JK: AO2USO                          :      0.000u      0.000s      0.000w     14 calls
HF: Form F                          :      0.000u      0.000s      0.000w     14 calls
HF: Form D                          :      0.000u      0.000s      0.000w     14 calls
HF: DIIS                            :      0.017u      0.000s      0.006w     13 calls
DIISManager::add_entry              :      0.017u      0.000s      0.001w     13 calls
DIISManager::extrapolate            :      0.000u      0.000s      0.001w     13 calls
bMatrix setup                       :      0.000u      0.000s      0.001w     13 calls
bMatrix pseudoinverse               :      0.000u      0.000s      0.000w     13 calls
New vector                          :      0.000u      0.000s      0.000w     13 calls
HF: Form C                          :      0.000u      0.000s      0.003w     13 calls
Grad: V T Perturb                   :      0.083u      0.000s      0.052w      1 calls
Grad: S                             :      0.000u      0.000s      0.001w      1 calls
Grad: JK                            :      1.917u      0.000s      1.172w      1 calls
JKGrad: Amn                         :      0.317u      0.000s      0.184w      1 calls
JKGrad: Awmn                        :      0.000u      0.000s      0.000w      1 calls
JKGrad: AB                          :      0.283u      0.000s      0.168w      1 calls
JKGrad: UV                          :      0.000u      0.000s      0.000w      1 calls
JKGrad: ABx                         :      0.117u      0.000s      0.075w      1 calls
JKGrad: Amnx                        :      1.183u      0.000s      0.712w      1 calls
Grad: XC                            :      1.383u      0.000s      0.823w      1 calls
V_xc gradient                       :      0.417u      0.000s      0.293w   2999 calls

--------------------------------------------------------------------------------------
V: Grid                             :      1.250u      0.017s      0.760w      1 calls
DFH: sparsity prep                  :      0.033u      0.000s      0.013w      1 calls
DFH: initialize()                   :      0.633u      0.017s      0.390w      1 calls
| DFH: AO Construction              :      0.250u      0.017s      0.157w      1 calls
| DFH: AO-Met. Contraction          :      0.083u      0.000s      0.046w      1 calls
HF: Form core H                     :      0.000u      0.000s      0.002w      1 calls
HF: Form S/X                        :      0.000u      0.000s      0.000w      1 calls
HF: Guess                           :      0.267u      0.000s      0.160w      1 calls
| SAD Guess                         :      0.267u      0.000s      0.153w      1 calls
HF: Form G                          :      8.250u      0.167s      5.059w     14 calls
| RV: Form V                        :      8.217u      0.167s      5.039w     14 calls
| | Properties                      :      1.817u      0.050s      1.154w  41986 calls
| | Functional                      :      4.050u      0.083s      2.493w  41986 calls
| | V_xc                            :      2.233u      0.033s      1.328w  41986 calls
| JK: D                             :      0.017u      0.000s      0.000w     14 calls
| JK: USO2AO                        :      0.000u      0.000s      0.000w     14 calls
| JK: JK                            :      0.017u      0.000s      0.019w     14 calls
| | DFH: compute_JK()               :      0.017u      0.000s      0.019w     14 calls
| | | DFH: Grabbing AOs             :      0.000u      0.000s      0.000w     14 calls
| | | DFH: compute_J                :      0.017u      0.000s      0.019w     14 calls
| JK: AO2USO                        :      0.000u      0.000s      0.000w     14 calls
HF: Form F                          :      0.000u      0.000s      0.000w     14 calls
HF: Form D                          :      0.000u      0.000s      0.000w     14 calls
HF: DIIS                            :      0.017u      0.000s      0.006w     13 calls
| DIISManager::add_entry            :      0.017u      0.000s      0.001w     13 calls
| DIISManager::extrapolate          :      0.000u      0.000s      0.001w     13 calls
| | bMatrix setup                   :      0.000u      0.000s      0.001w     13 calls
| | bMatrix pseudoinverse           :      0.000u      0.000s      0.000w     13 calls
| | New vector                      :      0.000u      0.000s      0.000w     13 calls
HF: Form C                          :      0.000u      0.000s      0.003w     13 calls
Grad: V T Perturb                   :      0.083u      0.000s      0.052w      1 calls
Grad: S                             :      0.000u      0.000s      0.001w      1 calls
Grad: JK                            :      1.917u      0.000s      1.172w      1 calls
| JKGrad: Amn                       :      0.317u      0.000s      0.184w      1 calls
| JKGrad: Awmn                      :      0.000u      0.000s      0.000w      1 calls
| JKGrad: AB                        :      0.283u      0.000s      0.168w      1 calls
| JKGrad: UV                        :      0.000u      0.000s      0.000w      1 calls
| JKGrad: ABx                       :      0.117u      0.000s      0.075w      1 calls
| JKGrad: Amnx                      :      1.183u      0.000s      0.712w      1 calls
Grad: XC                            :      1.383u      0.000s      0.823w      1 calls
| Properties                        :      0.700u      0.000s      0.348w   2999 calls
| Functional                        :      0.250u      0.000s      0.177w   2999 calls
| V_xc gradient                     :      0.417u      0.000s      0.293w   2999 calls

**************************************************************************************

Host: aaojha

Timers On : Fri May 14 10:13:50 2021
Timers Off: Fri May 14 10:14:00 2021

Wall Time:        9.49 seconds

                                                       Time (seconds)
Module                                       User      System        Wall        Calls
V: Grid                             :      1.250u      0.017s      0.750w      1 calls
DFH: sparsity prep                  :      0.033u      0.000s      0.012w      1 calls
DFH: initialize()                   :      0.633u      0.017s      0.390w      1 calls
DFH: AO Construction                :      0.267u      0.000s      0.159w      1 calls
DFH: AO-Met. Contraction            :      0.083u      0.000s      0.046w      1 calls
HF: Form core H                     :      0.000u      0.000s      0.002w      1 calls
HF: Form S/X                        :      0.000u      0.000s      0.000w      1 calls
HF: Guess                           :      0.267u      0.000s      0.160w      1 calls
SAD Guess                           :      0.250u      0.000s      0.153w      1 calls
HF: Form G                          :      8.217u      0.133s      4.999w     14 calls
RV: Form V                          :      8.167u      0.133s      4.977w     14 calls
Properties                          :      2.417u      0.050s      1.478w  44775 calls
Functional                          :      4.367u      0.050s      2.656w  44775 calls
V_xc                                :      1.917u      0.033s      1.300w  41790 calls
JK: D                               :      0.000u      0.000s      0.000w     14 calls
JK: USO2AO                          :      0.000u      0.000s      0.000w     14 calls
JK: JK                              :      0.050u      0.000s      0.021w     14 calls
DFH: compute_JK()                   :      0.050u      0.000s      0.021w     14 calls
DFH: Grabbing AOs                   :      0.000u      0.000s      0.000w     14 calls
DFH: compute_J                      :      0.050u      0.000s      0.021w     14 calls
JK: AO2USO                          :      0.000u      0.000s      0.000w     14 calls
HF: Form F                          :      0.000u      0.000s      0.000w     14 calls
HF: Form D                          :      0.000u      0.000s      0.000w     14 calls
HF: DIIS                            :      0.017u      0.000s      0.006w     13 calls
DIISManager::add_entry              :      0.000u      0.000s      0.001w     13 calls
DIISManager::extrapolate            :      0.000u      0.000s      0.001w     13 calls
bMatrix setup                       :      0.000u      0.000s      0.001w     13 calls
bMatrix pseudoinverse               :      0.000u      0.000s      0.000w     13 calls
New vector                          :      0.000u      0.000s      0.000w     13 calls
HF: Form C                          :      0.000u      0.000s      0.003w     13 calls
Grad: V T Perturb                   :      0.083u      0.000s      0.049w      1 calls
Grad: S                             :      0.000u      0.000s      0.001w      1 calls
Grad: JK                            :      1.917u      0.000s      1.165w      1 calls
JKGrad: Amn                         :      0.300u      0.000s      0.179w      1 calls
JKGrad: Awmn                        :      0.000u      0.000s      0.000w      1 calls
JKGrad: AB                          :      0.283u      0.000s      0.172w      1 calls
JKGrad: UV                          :      0.000u      0.000s      0.000w      1 calls
JKGrad: ABx                         :      0.133u      0.000s      0.078w      1 calls
JKGrad: Amnx                        :      1.183u      0.000s      0.711w      1 calls
Grad: XC                            :      1.333u      0.000s      0.810w      1 calls
V_xc gradient                       :      0.700u      0.000s      0.290w   2985 calls

--------------------------------------------------------------------------------------
V: Grid                             :      1.250u      0.017s      0.750w      1 calls
DFH: sparsity prep                  :      0.033u      0.000s      0.012w      1 calls
DFH: initialize()                   :      0.633u      0.017s      0.390w      1 calls
| DFH: AO Construction              :      0.267u      0.000s      0.159w      1 calls
| DFH: AO-Met. Contraction          :      0.083u      0.000s      0.046w      1 calls
HF: Form core H                     :      0.000u      0.000s      0.002w      1 calls
HF: Form S/X                        :      0.000u      0.000s      0.000w      1 calls
HF: Guess                           :      0.267u      0.000s      0.160w      1 calls
| SAD Guess                         :      0.250u      0.000s      0.153w      1 calls
HF: Form G                          :      8.217u      0.133s      4.999w     14 calls
| RV: Form V                        :      8.167u      0.133s      4.977w     14 calls
| | Properties                      :      1.950u      0.050s      1.138w  41790 calls
| | Functional                      :      4.217u      0.050s      2.481w  41790 calls
| | V_xc                            :      1.917u      0.033s      1.300w  41790 calls
| JK: D                             :      0.000u      0.000s      0.000w     14 calls
| JK: USO2AO                        :      0.000u      0.000s      0.000w     14 calls
| JK: JK                            :      0.050u      0.000s      0.021w     14 calls
| | DFH: compute_JK()               :      0.050u      0.000s      0.021w     14 calls
| | | DFH: Grabbing AOs             :      0.000u      0.000s      0.000w     14 calls
| | | DFH: compute_J                :      0.050u      0.000s      0.021w     14 calls
| JK: AO2USO                        :      0.000u      0.000s      0.000w     14 calls
HF: Form F                          :      0.000u      0.000s      0.000w     14 calls
HF: Form D                          :      0.000u      0.000s      0.000w     14 calls
HF: DIIS                            :      0.017u      0.000s      0.006w     13 calls
| DIISManager::add_entry            :      0.000u      0.000s      0.001w     13 calls
| DIISManager::extrapolate          :      0.000u      0.000s      0.001w     13 calls
| | bMatrix setup                   :      0.000u      0.000s      0.001w     13 calls
| | bMatrix pseudoinverse           :      0.000u      0.000s      0.000w     13 calls
| | New vector                      :      0.000u      0.000s      0.000w     13 calls
HF: Form C                          :      0.000u      0.000s      0.003w     13 calls
Grad: V T Perturb                   :      0.083u      0.000s      0.049w      1 calls
Grad: S                             :      0.000u      0.000s      0.001w      1 calls
Grad: JK                            :      1.917u      0.000s      1.165w      1 calls
| JKGrad: Amn                       :      0.300u      0.000s      0.179w      1 calls
| JKGrad: Awmn                      :      0.000u      0.000s      0.000w      1 calls
| JKGrad: AB                        :      0.283u      0.000s      0.172w      1 calls
| JKGrad: UV                        :      0.000u      0.000s      0.000w      1 calls
| JKGrad: ABx                       :      0.133u      0.000s      0.078w      1 calls
| JKGrad: Amnx                      :      1.183u      0.000s      0.711w      1 calls
Grad: XC                            :      1.333u      0.000s      0.810w      1 calls
| Properties                        :      0.467u      0.000s      0.341w   2985 calls
| Functional                        :      0.150u      0.000s      0.176w   2985 calls
| V_xc gradient                     :      0.700u      0.000s      0.290w   2985 calls

**************************************************************************************

Host: aaojha

Timers On : Fri May 14 10:14:00 2021
Timers Off: Fri May 14 10:14:09 2021

Wall Time:        9.52 seconds

                                                       Time (seconds)
Module                                       User      System        Wall        Calls
V: Grid                             :      1.250u      0.033s      0.765w      1 calls
DFH: sparsity prep                  :      0.017u      0.000s      0.012w      1 calls
DFH: initialize()                   :      0.650u      0.017s      0.397w      1 calls
DFH: AO Construction                :      0.267u      0.000s      0.158w      1 calls
DFH: AO-Met. Contraction            :      0.067u      0.000s      0.046w      1 calls
HF: Form core H                     :      0.000u      0.000s      0.002w      1 calls
HF: Form S/X                        :      0.000u      0.000s      0.000w      1 calls
HF: Guess                           :      0.250u      0.000s      0.159w      1 calls
SAD Guess                           :      0.250u      0.000s      0.151w      1 calls
HF: Form G                          :      8.100u      0.150s      4.973w     14 calls
RV: Form V                          :      8.083u      0.150s      4.952w     14 calls
Properties                          :      2.283u      0.017s      1.495w  44700 calls
Functional                          :      4.083u      0.067s      2.625w  44700 calls
V_xc                                :      2.383u      0.067s      1.304w  41720 calls
JK: D                               :      0.000u      0.000s      0.000w     14 calls
JK: USO2AO                          :      0.000u      0.000s      0.000w     14 calls
JK: JK                              :      0.017u      0.000s      0.021w     14 calls
DFH: compute_JK()                   :      0.017u      0.000s      0.020w     14 calls
DFH: Grabbing AOs                   :      0.000u      0.000s      0.000w     14 calls
DFH: compute_J                      :      0.017u      0.000s      0.020w     14 calls
JK: AO2USO                          :      0.000u      0.000s      0.000w     14 calls
HF: Form F                          :      0.000u      0.000s      0.000w     14 calls
HF: Form D                          :      0.000u      0.000s      0.000w     14 calls
HF: DIIS                            :      0.017u      0.000s      0.006w     13 calls
DIISManager::add_entry              :      0.000u      0.000s      0.001w     13 calls
DIISManager::extrapolate            :      0.000u      0.000s      0.001w     13 calls
bMatrix setup                       :      0.000u      0.000s      0.001w     13 calls
bMatrix pseudoinverse               :      0.000u      0.000s      0.000w     13 calls
New vector                          :      0.000u      0.000s      0.000w     13 calls
HF: Form C                          :      0.017u      0.000s      0.003w     13 calls
Grad: V T Perturb                   :      0.083u      0.000s      0.051w      1 calls
Grad: S                             :      0.000u      0.000s      0.001w      1 calls
Grad: JK                            :      1.850u      0.000s      1.130w      1 calls
JKGrad: Amn                         :      0.300u      0.000s      0.176w      1 calls
JKGrad: Awmn                        :      0.000u      0.000s      0.000w      1 calls
JKGrad: AB                          :      0.267u      0.000s      0.167w      1 calls
JKGrad: UV                          :      0.000u      0.000s      0.000w      1 calls
JKGrad: ABx                         :      0.133u      0.000s      0.074w      1 calls
JKGrad: Amnx                        :      1.133u      0.000s      0.682w      1 calls
Grad: XC                            :      1.367u      0.017s      0.832w      1 calls
V_xc gradient                       :      0.517u      0.017s      0.294w   2980 calls

--------------------------------------------------------------------------------------
V: Grid                             :      1.250u      0.033s      0.765w      1 calls
DFH: sparsity prep                  :      0.017u      0.000s      0.012w      1 calls
DFH: initialize()                   :      0.650u      0.017s      0.397w      1 calls
| DFH: AO Construction              :      0.267u      0.000s      0.158w      1 calls
| DFH: AO-Met. Contraction          :      0.067u      0.000s      0.046w      1 calls
HF: Form core H                     :      0.000u      0.000s      0.002w      1 calls
HF: Form S/X                        :      0.000u      0.000s      0.000w      1 calls
HF: Guess                           :      0.250u      0.000s      0.159w      1 calls
| SAD Guess                         :      0.250u      0.000s      0.151w      1 calls
HF: Form G                          :      8.100u      0.150s      4.973w     14 calls
| RV: Form V                        :      8.083u      0.150s      4.952w     14 calls
| | Properties                      :      1.700u      0.017s      1.137w  41720 calls
| | Functional                      :      3.850u      0.067s      2.451w  41720 calls
| | V_xc                            :      2.383u      0.067s      1.304w  41720 calls
| JK: D                             :      0.000u      0.000s      0.000w     14 calls
| JK: USO2AO                        :      0.000u      0.000s      0.000w     14 calls
| JK: JK                            :      0.017u      0.000s      0.021w     14 calls
| | DFH: compute_JK()               :      0.017u      0.000s      0.020w     14 calls
| | | DFH: Grabbing AOs             :      0.000u      0.000s      0.000w     14 calls
| | | DFH: compute_J                :      0.017u      0.000s      0.020w     14 calls
| JK: AO2USO                        :      0.000u      0.000s      0.000w     14 calls
HF: Form F                          :      0.000u      0.000s      0.000w     14 calls
HF: Form D                          :      0.000u      0.000s      0.000w     14 calls
HF: DIIS                            :      0.017u      0.000s      0.006w     13 calls
| DIISManager::add_entry            :      0.000u      0.000s      0.001w     13 calls
| DIISManager::extrapolate          :      0.000u      0.000s      0.001w     13 calls
| | bMatrix setup                   :      0.000u      0.000s      0.001w     13 calls
| | bMatrix pseudoinverse           :      0.000u      0.000s      0.000w     13 calls
| | New vector                      :      0.000u      0.000s      0.000w     13 calls
HF: Form C                          :      0.017u      0.000s      0.003w     13 calls
Grad: V T Perturb                   :      0.083u      0.000s      0.051w      1 calls
Grad: S                             :      0.000u      0.000s      0.001w      1 calls
Grad: JK                            :      1.850u      0.000s      1.130w      1 calls
| JKGrad: Amn                       :      0.300u      0.000s      0.176w      1 calls
| JKGrad: Awmn                      :      0.000u      0.000s      0.000w      1 calls
| JKGrad: AB                        :      0.267u      0.000s      0.167w      1 calls
| JKGrad: UV                        :      0.000u      0.000s      0.000w      1 calls
| JKGrad: ABx                       :      0.133u      0.000s      0.074w      1 calls
| JKGrad: Amnx                      :      1.133u      0.000s      0.682w      1 calls
Grad: XC                            :      1.367u      0.017s      0.832w      1 calls
| Properties                        :      0.583u      0.000s      0.358w   2980 calls
| Functional                        :      0.233u      0.000s      0.174w   2980 calls
| V_xc gradient                     :      0.517u      0.017s      0.294w   2980 calls

**************************************************************************************

Host: aaojha

Timers On : Fri May 14 10:14:10 2021
Timers Off: Fri May 14 10:14:19 2021

Wall Time:        9.36 seconds

                                                       Time (seconds)
Module                                       User      System        Wall        Calls
V: Grid                             :      1.233u      0.000s      0.737w      1 calls
DFH: sparsity prep                  :      0.017u      0.000s      0.012w      1 calls
DFH: initialize()                   :      0.600u      0.033s      0.386w      1 calls
DFH: AO Construction                :      0.250u      0.000s      0.154w      1 calls
DFH: AO-Met. Contraction            :      0.067u      0.017s      0.047w      1 calls
HF: Form core H                     :      0.000u      0.000s      0.000w      1 calls
HF: Form S/X                        :      0.000u      0.000s      0.000w      1 calls
HF: Guess                           :      0.250u      0.000s      0.153w      1 calls
SAD Guess                           :      0.250u      0.000s      0.146w      1 calls
HF: Form G                          :      8.067u      0.150s      4.937w     14 calls
RV: Form V                          :      8.033u      0.150s      4.917w     14 calls
Properties                          :      2.467u      0.017s      1.480w  44760 calls
Functional                          :      4.333u      0.117s      2.598w  44760 calls
V_xc                                :      1.917u      0.017s      1.299w  41776 calls
JK: D                               :      0.000u      0.000s      0.000w     14 calls
JK: USO2AO                          :      0.000u      0.000s      0.000w     14 calls
JK: JK                              :      0.033u      0.000s      0.019w     14 calls
DFH: compute_JK()                   :      0.033u      0.000s      0.019w     14 calls
DFH: Grabbing AOs                   :      0.000u      0.000s      0.000w     14 calls
DFH: compute_J                      :      0.033u      0.000s      0.019w     14 calls
JK: AO2USO                          :      0.000u      0.000s      0.000w     14 calls
HF: Form F                          :      0.000u      0.000s      0.000w     14 calls
HF: Form D                          :      0.000u      0.000s      0.000w     14 calls
HF: DIIS                            :      0.033u      0.000s      0.015w     13 calls
DIISManager::add_entry              :      0.000u      0.000s      0.001w     13 calls
DIISManager::extrapolate            :      0.017u      0.000s      0.011w     13 calls
bMatrix setup                       :      0.017u      0.000s      0.010w     13 calls
bMatrix pseudoinverse               :      0.000u      0.000s      0.000w     13 calls
New vector                          :      0.000u      0.000s      0.000w     13 calls
HF: Form C                          :      0.000u      0.000s      0.003w     13 calls
Grad: V T Perturb                   :      0.083u      0.000s      0.051w      1 calls
Grad: S                             :      0.000u      0.000s      0.001w      1 calls
Grad: JK                            :      1.850u      0.000s      1.115w      1 calls
JKGrad: Amn                         :      0.283u      0.000s      0.171w      1 calls
JKGrad: Awmn                        :      0.000u      0.000s      0.000w      1 calls
JKGrad: AB                          :      0.283u      0.000s      0.164w      1 calls
JKGrad: UV                          :      0.000u      0.000s      0.000w      1 calls
JKGrad: ABx                         :      0.117u      0.000s      0.073w      1 calls
JKGrad: Amnx                        :      1.150u      0.000s      0.684w      1 calls
Grad: XC                            :      1.367u      0.000s      0.821w      1 calls
V_xc gradient                       :      0.517u      0.000s      0.296w   2984 calls

--------------------------------------------------------------------------------------
V: Grid                             :      1.233u      0.000s      0.737w      1 calls
DFH: sparsity prep                  :      0.017u      0.000s      0.012w      1 calls
DFH: initialize()                   :      0.600u      0.033s      0.386w      1 calls
| DFH: AO Construction              :      0.250u      0.000s      0.154w      1 calls
| DFH: AO-Met. Contraction          :      0.067u      0.017s      0.047w      1 calls
HF: Form core H                     :      0.000u      0.000s      0.000w      1 calls
HF: Form S/X                        :      0.000u      0.000s      0.000w      1 calls
HF: Guess                           :      0.250u      0.000s      0.153w      1 calls
| SAD Guess                         :      0.250u      0.000s      0.146w      1 calls
HF: Form G                          :      8.067u      0.150s      4.937w     14 calls
| RV: Form V                        :      8.033u      0.150s      4.917w     14 calls
| | Properties                      :      1.933u      0.017s      1.135w  41776 calls
| | Functional                      :      4.033u      0.117s      2.424w  41776 calls
| | V_xc                            :      1.917u      0.017s      1.299w  41776 calls
| JK: D                             :      0.000u      0.000s      0.000w     14 calls
| JK: USO2AO                        :      0.000u      0.000s      0.000w     14 calls
| JK: JK                            :      0.033u      0.000s      0.019w     14 calls
| | DFH: compute_JK()               :      0.033u      0.000s      0.019w     14 calls
| | | DFH: Grabbing AOs             :      0.000u      0.000s      0.000w     14 calls
| | | DFH: compute_J                :      0.033u      0.000s      0.019w     14 calls
| JK: AO2USO                        :      0.000u      0.000s      0.000w     14 calls
HF: Form F                          :      0.000u      0.000s      0.000w     14 calls
HF: Form D                          :      0.000u      0.000s      0.000w     14 calls
HF: DIIS                            :      0.033u      0.000s      0.015w     13 calls
| DIISManager::add_entry            :      0.000u      0.000s      0.001w     13 calls
| DIISManager::extrapolate          :      0.017u      0.000s      0.011w     13 calls
| | bMatrix setup                   :      0.017u      0.000s      0.010w     13 calls
| | bMatrix pseudoinverse           :      0.000u      0.000s      0.000w     13 calls
| | New vector                      :      0.000u      0.000s      0.000w     13 calls
HF: Form C                          :      0.000u      0.000s      0.003w     13 calls
Grad: V T Perturb                   :      0.083u      0.000s      0.051w      1 calls
Grad: S                             :      0.000u      0.000s      0.001w      1 calls
Grad: JK                            :      1.850u      0.000s      1.115w      1 calls
| JKGrad: Amn                       :      0.283u      0.000s      0.171w      1 calls
| JKGrad: Awmn                      :      0.000u      0.000s      0.000w      1 calls
| JKGrad: AB                        :      0.283u      0.000s      0.164w      1 calls
| JKGrad: UV                        :      0.000u      0.000s      0.000w      1 calls
| JKGrad: ABx                       :      0.117u      0.000s      0.073w      1 calls
| JKGrad: Amnx                      :      1.150u      0.000s      0.684w      1 calls
Grad: XC                            :      1.367u      0.000s      0.821w      1 calls
| Properties                        :      0.533u      0.000s      0.345w   2984 calls
| Functional                        :      0.300u      0.000s      0.174w   2984 calls
| V_xc gradient                     :      0.517u      0.000s      0.296w   2984 calls

**************************************************************************************

Host: aaojha

Timers On : Fri May 14 10:14:19 2021
Timers Off: Fri May 14 10:14:29 2021

Wall Time:        9.43 seconds

                                                       Time (seconds)
Module                                       User      System        Wall        Calls
V: Grid                             :      1.200u      0.000s      0.729w      1 calls
DFH: sparsity prep                  :      0.017u      0.000s      0.012w      1 calls
DFH: initialize()                   :      0.633u      0.017s      0.386w      1 calls
DFH: AO Construction                :      0.267u      0.000s      0.157w      1 calls
DFH: AO-Met. Contraction            :      0.067u      0.000s      0.045w      1 calls
HF: Form core H                     :      0.000u      0.000s      0.002w      1 calls
HF: Form S/X                        :      0.000u      0.000s      0.000w      1 calls
HF: Guess                           :      0.250u      0.000s      0.153w      1 calls
SAD Guess                           :      0.250u      0.000s      0.147w      1 calls
HF: Form G                          :      8.267u      0.117s      5.011w     14 calls
RV: Form V                          :      8.233u      0.117s      4.990w     14 calls
Properties                          :      2.150u      0.033s      1.492w  44955 calls
Functional                          :      4.233u      0.033s      2.641w  44955 calls
V_xc                                :      2.467u      0.050s      1.321w  41958 calls
JK: D                               :      0.000u      0.000s      0.000w     14 calls
JK: USO2AO                          :      0.000u      0.000s      0.000w     14 calls
JK: JK                              :      0.033u      0.000s      0.020w     14 calls
DFH: compute_JK()                   :      0.033u      0.000s      0.020w     14 calls
DFH: Grabbing AOs                   :      0.000u      0.000s      0.000w     14 calls
DFH: compute_J                      :      0.033u      0.000s      0.020w     14 calls
JK: AO2USO                          :      0.000u      0.000s      0.000w     14 calls
HF: Form F                          :      0.000u      0.000s      0.000w     14 calls
HF: Form D                          :      0.000u      0.000s      0.000w     14 calls
HF: DIIS                            :      0.000u      0.000s      0.006w     13 calls
[...]
JKGrad: AB                          :      0.283u      0.000s      0.165w      1 calls
JKGrad: UV                          :      0.000u      0.000s      0.000w      1 calls
JKGrad: ABx                         :      0.133u      0.000s      0.078w      1 calls
JKGrad: Amnx                        :      1.167u      0.000s      0.700w      1 calls
Grad: XC                            :      1.367u      0.000s      0.825w      1 calls
V_xc gradient                       :      0.517u      0.000s      0.296w   2997 calls

--------------------------------------------------------------------------------------
V: Grid                             :      1.200u      0.000s      0.729w      1 calls
DFH: sparsity prep                  :      0.017u      0.000s      0.012w      1 calls
DFH: initialize()                   :      0.633u      0.017s      0.386w      1 calls
| DFH: AO Construction              :      0.267u      0.000s      0.157w      1 calls
| DFH: AO-Met. Contraction          :      0.067u      0.000s      0.045w      1 calls
HF: Form core H                     :      0.000u      0.000s      0.002w      1 calls
HF: Form S/X                        :      0.000u      0.000s      0.000w      1 calls
HF: Guess                           :      0.250u      0.000s      0.153w      1 calls
| SAD Guess                         :      0.250u      0.000s      0.147w      1 calls
HF: Form G                          :      8.267u      0.117s      5.011w     14 calls
| RV: Form V                        :      8.233u      0.117s      4.990w     14 calls
| | Properties                      :      1.517u      0.033s      1.144w  41958 calls
| | Functional                      :      4.017u      0.033s      2.465w  41958 calls
| | V_xc                            :      2.467u      0.050s      1.321w  41958 calls
| JK: D                             :      0.000u      0.000s      0.000w     14 calls
| JK: USO2AO                        :      0.000u      0.000s      0.000w     14 calls
| JK: JK                            :      0.033u      0.000s      0.020w     14 calls
| | DFH: compute_JK()               :      0.033u      0.000s      0.020w     14 calls
| | | DFH: Grabbing AOs             :      0.000u      0.000s      0.000w     14 calls
| | | DFH: compute_J                :      0.033u      0.000s      0.020w     14 calls
| JK: AO2USO                        :      0.000u      0.000s      0.000w     14 calls
HF: Form F                          :      0.000u      0.000s      0.000w     14 calls
HF: Form D                          :      0.000u      0.000s      0.000w     14 calls
HF: DIIS                            :      0.000u      0.000s      0.006w     13 calls
| DIISManager::add_entry            :      0.000u      0.000s      0.001w     13 calls
| DIISManager::extrapolate          :      0.000u      0.000s      0.001w     13 calls
| | bMatrix setup                   :      0.000u      0.000s      0.001w     13 calls
| | bMatrix pseudoinverse           :      0.000u      0.000s      0.000w     13 calls
| | New vector                      :      0.000u      0.000s      0.000w     13 calls
HF: Form C                          :      0.000u      0.000s      0.003w     13 calls
Grad: V T Perturb                   :      0.083u      0.000s      0.053w      1 calls
Grad: S                             :      0.017u      0.000s      0.001w      1 calls
Grad: JK                            :      1.883u      0.000s      1.133w      1 calls
| JKGrad: Amn                       :      0.283u      0.000s      0.175w      1 calls
| JKGrad: Awmn                      :      0.000u      0.000s      0.000w      1 calls
| JKGrad: AB                        :      0.283u      0.000s      0.165w      1 calls
| JKGrad: UV                        :      0.000u      0.000s      0.000w      1 calls
| JKGrad: ABx                       :      0.133u      0.000s      0.078w      1 calls
| JKGrad: Amnx                      :      1.167u      0.000s      0.700w      1 calls
Grad: XC                            :      1.367u      0.000s      0.825w      1 calls
| Properties                        :      0.633u      0.000s      0.348w   2997 calls
| Functional                        :      0.217u      0.000s      0.176w   2997 calls
| V_xc gradient                     :      0.517u      0.000s      0.296w   2997 calls

**************************************************************************************

Host: aaojha

Timers On : Fri May 14 10:14:29 2021
Timers Off: Fri May 14 10:14:38 2021

Wall Time:        9.40 seconds

                                                       Time (seconds)
Module                                       User      System        Wall        Calls
V: Grid                             :      1.200u      0.017s      0.739w      1 calls
DFH: sparsity prep                  :      0.017u      0.000s      0.012w      1 calls
DFH: initialize()                   :      0.617u      0.017s      0.387w      1 calls
DFH: AO Construction                :      0.267u      0.000s      0.156w      1 calls
DFH: AO-Met. Contraction            :      0.067u      0.000s      0.045w      1 calls
HF: Form core H                     :      0.000u      0.000s      0.002w      1 calls
HF: Form S/X                        :      0.000u      0.000s      0.000w      1 calls
HF: Guess                           :      0.250u      0.000s      0.153w      1 calls
SAD Guess                           :      0.233u      0.000s      0.146w      1 calls
HF: Form G                          :      8.217u      0.083s      4.969w     14 calls
RV: Form V                          :      8.200u      0.083s      4.949w     14 calls
Properties                          :      2.550u      0.017s      1.484w  44880 calls
Functional                          :      4.217u      0.067s      2.632w  44880 calls
V_xc                                :      2.067u      0.000s      1.299w  41888 calls
JK: D                               :      0.000u      0.000s      0.000w     14 calls
JK: USO2AO                          :      0.000u      0.000s      0.000w     14 calls
JK: JK                              :      0.017u      0.000s      0.019w     14 calls
DFH: compute_JK()                   :      0.017u      0.000s      0.019w     14 calls
DFH: Grabbing AOs                   :      0.000u      0.000s      0.000w     14 calls
DFH: compute_J                      :      0.017u      0.000s      0.019w     14 calls
JK: AO2USO                          :      0.000u      0.000s      0.000w     14 calls
HF: Form F                          :      0.000u      0.000s      0.000w     14 calls
HF: Form D                          :      0.000u      0.000s      0.000w     14 calls
HF: DIIS                            :      0.017u      0.000s      0.006w     13 calls
DIISManager::add_entry              :      0.000u      0.000s      0.001w     13 calls
DIISManager::extrapolate            :      0.017u      0.000s      0.001w     13 calls
bMatrix setup                       :      0.000u      0.000s      0.001w     13 calls
bMatrix pseudoinverse               :      0.000u      0.000s      0.000w     13 calls
New vector                          :      0.017u      0.000s      0.000w     13 calls
HF: Form C                          :      0.000u      0.000s      0.003w     13 calls
Grad: V T Perturb                   :      0.100u      0.000s      0.052w      1 calls
Grad: S                             :      0.000u      0.000s      0.001w      1 calls
Grad: JK                            :      1.833u      0.000s      1.114w      1 calls
JKGrad: Amn                         :      0.283u      0.000s      0.172w      1 calls
JKGrad: Awmn                        :      0.000u      0.000s      0.000w      1 calls
JKGrad: AB                          :      0.283u      0.000s      0.164w      1 calls
JKGrad: UV                          :      0.000u      0.000s      0.000w      1 calls
JKGrad: ABx                         :      0.117u      0.000s      0.074w      1 calls
JKGrad: Amnx                        :      1.133u      0.000s      0.682w      1 calls
Grad: XC                            :      1.367u      0.000s      0.825w      1 calls
V_xc gradient                       :      0.650u      0.000s      0.295w   2992 calls

--------------------------------------------------------------------------------------
V: Grid                             :      1.200u      0.017s      0.739w      1 calls
DFH: sparsity prep                  :      0.017u      0.000s      0.012w      1 calls
DFH: initialize()                   :      0.617u      0.017s      0.387w      1 calls
| DFH: AO Construction              :      0.267u      0.000s      0.156w      1 calls
| DFH: AO-Met. Contraction          :      0.067u      0.000s      0.045w      1 calls
HF: Form core H                     :      0.000u      0.000s      0.002w      1 calls
HF: Form S/X                        :      0.000u      0.000s      0.000w      1 calls
HF: Guess                           :      0.250u      0.000s      0.153w      1 calls
| SAD Guess                         :      0.233u      0.000s      0.146w      1 calls
HF: Form G                          :      8.217u      0.083s      4.969w     14 calls
| RV: Form V                        :      8.200u      0.083s      4.949w     14 calls
| | Properties                      :      2.000u      0.017s      1.134w  41888 calls
| | Functional                      :      4.050u      0.067s      2.457w  41888 calls
| | V_xc                            :      2.067u      0.000s      1.299w  41888 calls
| JK: D                             :      0.000u      0.000s      0.000w     14 calls
| JK: USO2AO                        :      0.000u      0.000s      0.000w     14 calls
| JK: JK                            :      0.017u      0.000s      0.019w     14 calls
| | DFH: compute_JK()               :      0.017u      0.000s      0.019w     14 calls
| | | DFH: Grabbing AOs             :      0.000u      0.000s      0.000w     14 calls
| | | DFH: compute_J                :      0.017u      0.000s      0.019w     14 calls
| JK: AO2USO                        :      0.000u      0.000s      0.000w     14 calls
HF: Form F                          :      0.000u      0.000s      0.000w     14 calls
HF: Form D                          :      0.000u      0.000s      0.000w     14 calls
HF: DIIS                            :      0.017u      0.000s      0.006w     13 calls
| DIISManager::add_entry            :      0.000u      0.000s      0.001w     13 calls
| DIISManager::extrapolate          :      0.017u      0.000s      0.001w     13 calls
| | bMatrix setup                   :      0.000u      0.000s      0.001w     13 calls
| | bMatrix pseudoinverse           :      0.000u      0.000s      0.000w     13 calls
| | New vector                      :      0.017u      0.000s      0.000w     13 calls
HF: Form C                          :      0.000u      0.000s      0.003w     13 calls
Grad: V T Perturb                   :      0.100u      0.000s      0.052w      1 calls
Grad: S                             :      0.000u      0.000s      0.001w      1 calls
Grad: JK                            :      1.833u      0.000s      1.114w      1 calls
| JKGrad: Amn                       :      0.283u      0.000s      0.172w      1 calls
| JKGrad: Awmn                      :      0.000u      0.000s      0.000w      1 calls
| JKGrad: AB                        :      0.283u      0.000s      0.164w      1 calls
| JKGrad: UV                        :      0.000u      0.000s      0.000w      1 calls
| JKGrad: ABx                       :      0.117u      0.000s      0.074w      1 calls
| JKGrad: Amnx                      :      1.133u      0.000s      0.682w      1 calls
Grad: XC                            :      1.367u      0.000s      0.825w      1 calls
| Properties                        :      0.550u      0.000s      0.350w   2992 calls
| Functional                        :      0.167u      0.000s      0.176w   2992 calls
| V_xc gradient                     :      0.650u      0.000s      0.295w   2992 calls

**************************************************************************************

Host: aaojha

Timers On : Fri May 14 10:14:39 2021
Timers Off: Fri May 14 10:14:48 2021

Wall Time:        9.49 seconds

                                                       Time (seconds)
Module                                       User      System        Wall        Calls
V: Grid                             :      1.217u      0.000s      0.741w      1 calls
DFH: sparsity prep                  :      0.017u      0.000s      0.013w      1 calls
DFH: initialize()                   :      0.617u      0.017s      0.388w      1 calls
DFH: AO Construction                :      0.250u      0.017s      0.154w      1 calls
DFH: AO-Met. Contraction            :      0.067u      0.000s      0.045w      1 calls
HF: Form core H                     :      0.000u      0.000s      0.002w      1 calls
HF: Form S/X                        :      0.000u      0.000s      0.001w      1 calls
HF: Guess                           :      0.283u      0.000s      0.171w      1 calls
SAD Guess                           :      0.250u      0.000s      0.154w      1 calls
HF: Form G                          :      8.283u      0.083s      5.004w     14 calls
RV: Form V                          :      8.183u      0.083s      4.983w     14 calls
Properties                          :      2.533u      0.000s      1.502w  44835 calls
Functional                          :      4.300u      0.067s      2.636w  44835 calls
V_xc                                :      2.300u      0.017s      1.312w  41846 calls
JK: D                               :      0.000u      0.000s      0.000w     14 calls
JK: USO2AO                          :      0.000u      0.000s      0.000w     14 calls
JK: JK                              :      0.100u      0.000s      0.020w     14 calls
DFH: compute_JK()                   :      0.100u      0.000s      0.020w     14 calls
DFH: Grabbing AOs                   :      0.000u      0.000s      0.000w     14 calls
DFH: compute_J                      :      0.100u      0.000s      0.020w     14 calls
JK: AO2USO                          :      0.000u      0.000s      0.000w     14 calls
HF: Form F                          :      0.000u      0.000s      0.000w     14 calls
HF: Form D                          :      0.000u      0.000s      0.000w     14 calls
HF: DIIS                            :      0.000u      0.000s      0.006w     13 calls
DIISManager::add_entry              :      0.000u      0.000s      0.001w     13 calls
DIISManager::extrapolate            :      0.000u      0.000s      0.002w     13 calls
bMatrix setup                       :      0.000u      0.000s      0.001w     13 calls
bMatrix pseudoinverse               :      0.000u      0.000s      0.000w     13 calls
New vector                          :      0.000u      0.000s      0.000w     13 calls
HF: Form C                          :      0.000u      0.000s      0.003w     13 calls
Grad: V T Perturb                   :      0.083u      0.000s      0.051w      1 calls
Grad: S                             :      0.000u      0.000s      0.001w      1 calls
Grad: JK                            :      1.850u      0.017s      1.135w      1 calls
JKGrad: Amn                         :      0.283u      0.000s      0.173w      1 calls
JKGrad: Awmn                        :      0.000u      0.000s      0.000w      1 calls
JKGrad: AB                          :      0.283u      0.000s      0.165w      1 calls
JKGrad: UV                          :      0.000u      0.000s      0.000w      1 calls
JKGrad: ABx                         :      0.117u      0.017s      0.074w      1 calls
JKGrad: Amnx                        :      1.150u      0.000s      0.690w      1 calls
Grad: XC                            :      1.383u      0.000s      0.828w      1 calls
V_xc gradient                       :      0.333u      0.000s      0.295w   2989 calls

--------------------------------------------------------------------------------------
V: Grid                             :      1.217u      0.000s      0.741w      1 calls
DFH: sparsity prep                  :      0.017u      0.000s      0.013w      1 calls
DFH: initialize()                   :      0.617u      0.017s      0.388w      1 calls
| DFH: AO Construction              :      0.250u      0.017s      0.154w      1 calls
| DFH: AO-Met. Contraction          :      0.067u      0.000s      0.045w      1 calls
HF: Form core H                     :      0.000u      0.000s      0.002w      1 calls
HF: Form S/X                        :      0.000u      0.000s      0.001w      1 calls
HF: Guess                           :      0.283u      0.000s      0.171w      1 calls
| SAD Guess                         :      0.250u      0.000s      0.154w      1 calls
HF: Form G                          :      8.283u      0.083s      5.004w     14 calls
| RV: Form V                        :      8.183u      0.083s      4.983w     14 calls
| | Properties                      :      1.917u      0.000s      1.151w  41846 calls
| | Functional                      :      3.883u      0.067s      2.460w  41846 calls
| | V_xc                            :      2.300u      0.017s      1.312w  41846 calls
| JK: D                             :      0.000u      0.000s      0.000w     14 calls
| JK: USO2AO                        :      0.000u      0.000s      0.000w     14 calls
| JK: JK                            :      0.100u      0.000s      0.020w     14 calls
| | DFH: compute_JK()               :      0.100u      0.000s      0.020w     14 calls
| | | DFH: Grabbing AOs             :      0.000u      0.000s      0.000w     14 calls
| | | DFH: compute_J                :      0.100u      0.000s      0.020w     14 calls
| JK: AO2USO                        :      0.000u      0.000s      0.000w     14 calls
HF: Form F                          :      0.000u      0.000s      0.000w     14 calls
HF: Form D                          :      0.000u      0.000s      0.000w     14 calls
HF: DIIS                            :      0.000u      0.000s      0.006w     13 calls
| DIISManager::add_entry            :      0.000u      0.000s      0.001w     13 calls
| DIISManager::extrapolate          :      0.000u      0.000s      0.002w     13 calls
| | bMatrix setup                   :      0.000u      0.000s      0.001w     13 calls
| | bMatrix pseudoinverse           :      0.000u      0.000s      0.000w     13 calls
| | New vector                      :      0.000u      0.000s      0.000w     13 calls
HF: Form C                          :      0.000u      0.000s      0.003w     13 calls
Grad: V T Perturb                   :      0.083u      0.000s      0.051w      1 calls
Grad: S                             :      0.000u      0.000s      0.001w      1 calls
Grad: JK                            :      1.850u      0.017s      1.135w      1 calls
| JKGrad: Amn                       :      0.283u      0.000s      0.173w      1 calls
| JKGrad: Awmn                      :      0.000u      0.000s      0.000w      1 calls
| JKGrad: AB                        :      0.283u      0.000s      0.165w      1 calls
| JKGrad: UV                        :      0.000u      0.000s      0.000w      1 calls
| JKGrad: ABx                       :      0.117u      0.017s      0.074w      1 calls
| JKGrad: Amnx                      :      1.150u      0.000s      0.690w      1 calls
Grad: XC                            :      1.383u      0.000s      0.828w      1 calls
| Properties                        :      0.617u      0.000s      0.351w   2989 calls
| Functional                        :      0.417u      0.000s      0.176w   2989 calls
| V_xc gradient                     :      0.333u      0.000s      0.295w   2989 calls

**************************************************************************************
