
    -----------------------------------------------------------------------
          Psi4: An Open-Source Ab Initio Electronic Structure Package
                               Psi4 1.3.2 release

                         Git: Rev {HEAD} ecbda83 


    R. M. Parrish, L. A. Burns, D. G. A. Smith, A. C. Simmonett,
    A. E. DePrince III, E. G. Hohenstein, U. Bozkaya, A. Yu. Sokolov,
    R. Di Remigio, R. M. Richard, J. F. Gonthier, A. M. James,
    H. R. McAlexander, A. Kumar, M. Saitow, X. Wang, B. P. Pritchard,
    P. Verma, H. F. Schaefer III, K. Patkowski, R. A. King, E. F. Valeev,
    F. A. Evangelista, J. M. Turney, T. D. Crawford, and C. D. Sherrill,
    J. Chem. Theory Comput. 13(7) pp 3185--3197 (2017).
    (doi: 10.1021/acs.jctc.7b00174)


                         Additional Contributions by
    P. Kraus, H. Kruse, M. H. Lechner, M. C. Schieber, R. A. Shaw,
    A. Alenaizan, R. Galvelis, Z. L. Glick, S. Lehtola, and J. P. Misiewicz

    -----------------------------------------------------------------------


    Psi4 started on: Friday, 14 May 2021 09:02AM

    Process ID: 28341
    Host:       aaojha
    PSIDATADIR: /home/aaojha/anaconda3/envs/torsiondrive/share/psi4
    Memory:     500.0 MiB
    Threads:    1
    
  ==> Input File <==

--------------------------------------------------------------------------
memory 50 GB
molecule {
1 1
C           0.1658520    -0.0010400     0.0033279
C          -0.5527880    -1.2266680    -0.2133557
C          -1.9702721    -1.2173108    -0.2189555
C          -2.6798499     0.0008393    -0.0007165
C          -1.9693936     1.2183673     0.2183088
C          -0.5519161     1.2259928     0.2149140
C           1.6727336    -0.0012753    -0.0009256
N           2.3769644    -1.1206755     0.4018917
N           2.3758264     1.1199139    -0.4009333
H          -0.0092477    -2.1699529    -0.4160647
H          -2.5247435    -2.1587132    -0.4000236
H          -3.7884399     0.0014482    -0.0018012
H          -2.5231310     2.1606096     0.3972715
H          -0.0077538     2.1689450     0.4174399
H           3.4281508    -1.1662022     0.3773926
H           1.8636850    -1.9381488     0.8164295
H           3.4270522     1.1667547    -0.3805447
H           1.8609826     1.9362545    -0.8157366
}
set {
basis STO-3G
}
gradient('BLYP')
--------------------------------------------------------------------------

  Memory set to  46.566 GiB by Python driver.
gradient() will perform analytic gradient computation.

*** tstart() called on aaojha
*** at Fri May 14 09:02:06 2021

   => Loading Basis Set <=

    Name: STO-3G
    Role: ORBITAL
    Keyword: BASIS
    atoms 1-7   entry C          line    61 file /home/aaojha/anaconda3/envs/torsiondrive/share/psi4/basis/sto-3g.gbs 
    atoms 8-9   entry N          line    71 file /home/aaojha/anaconda3/envs/torsiondrive/share/psi4/basis/sto-3g.gbs 
    atoms 10-18 entry H          line    19 file /home/aaojha/anaconda3/envs/torsiondrive/share/psi4/basis/sto-3g.gbs 


         ---------------------------------------------------------
                                   SCF
               by Justin Turney, Rob Parrish, Andy Simmonett
                          and Daniel G. A. Smith
                              RKS Reference
                        1 Threads,  47683 MiB Core
         ---------------------------------------------------------

  ==> Geometry <==

    Molecular point group: c1
    Full point group: C1

    Geometry (in Angstrom), charge = 1, multiplicity = 1:

       Center              X                  Y                   Z               Mass       
    ------------   -----------------  -----------------  -----------------  -----------------
         C            0.185127924238    -0.000851702170     0.003006550188    12.000000000000
         C           -0.533512075762    -1.226479702170    -0.213677049812    12.000000000000
         C           -1.950996175762    -1.217122502170    -0.219276849812    12.000000000000
         C           -2.660573975762     0.001027597830    -0.001037849812    12.000000000000
         C           -1.950117675762     1.218555597830     0.217987450188    12.000000000000
         C           -0.532640175762     1.226181097830     0.214592650188    12.000000000000
         C            1.692009524238    -0.001087002170    -0.001246949812    12.000000000000
         N            2.396240324238    -1.120487202170     0.401570350188    14.003074004430
         N            2.395102324238     1.120102197830    -0.401254649812    14.003074004430
         H            0.010028224238    -2.169764602170    -0.416386049812     1.007825032230
         H           -2.505467575762    -2.158524902170    -0.400344949812     1.007825032230
         H           -3.769163975762     0.001636497830    -0.002122549812     1.007825032230
         H           -2.503855075762     2.160797897830     0.396950150188     1.007825032230
         H            0.011522124238     2.169133297830     0.417118550188     1.007825032230
         H            3.447426724238    -1.166013902170     0.377071250188     1.007825032230
         H            1.882960924238    -1.937960502170     0.816108150188     1.007825032230
         H            3.446328124238     1.166942997830    -0.380866049812     1.007825032230
         H            1.880258524238     1.936442797830    -0.816057949812     1.007825032230

  Running in c1 symmetry.

  Rotational constants: A =      0.11618  B =      0.03782  C =      0.02944 [cm^-1]
  Rotational constants: A =   3483.07822  B =   1133.93855  C =    882.51563 [MHz]
  Nuclear repulsion =  406.416874000057362

  Charge       = 1
  Multiplicity = 1
  Electrons    = 64
  Nalpha       = 32
  Nbeta        = 32

  ==> Algorithm <==

  SCF Algorithm Type is DF.
  DIIS enabled.
  MOM disabled.
  Fractional occupation disabled.
  Guess Type is SAD.
  Energy threshold   = 1.00e-08
  Density threshold  = 1.00e-08
  Integral threshold = 0.00e+00

  ==> Primary Basis <==

  Basis Set: STO-3G
    Blend: STO-3G
    Number of shells: 36
    Number of basis function: 54
    Number of Cartesian functions: 54
    Spherical Harmonics?: true
    Max angular momentum: 1

  ==> DFT Potential <==

   => Composite Functional: BLYP <= 

    BLYP GGA Exchange-Correlation Functional

    P.J. Stephens et. al., J. Phys. Chem., 98, 11623-11627, 1994
    B. Miehlich et. al., Chem. Phys. Lett., 157(3), 200-206 1989


    Deriv               =              1
    GGA                 =           TRUE
    Meta                =          FALSE

    Exchange Hybrid     =          FALSE
    MP2 Hybrid          =          FALSE

   => Exchange Functionals <=

    1.0000     XC_GGA_X_B88

   => Correlation Functionals <=

    1.0000     XC_GGA_C_LYP

   => Molecular Quadrature <=

    Radial Scheme          =       TREUTLER
    Pruning Scheme         =           FLAT
    Nuclear Scheme         =       TREUTLER

    BS radius alpha        =              1
    Pruning alpha          =              1
    Radial Points          =             75
    Spherical Points       =            302
    Total Points           =         395277
    Total Blocks           =           2954
    Max Points             =            256
    Max Functions          =             51

   => Loading Basis Set <=

    Name: (STO-3G AUX)
    Role: JKFIT
    Keyword: DF_BASIS_SCF
    atoms 1-7   entry C          line   203 file /home/aaojha/anaconda3/envs/torsiondrive/share/psi4/basis/def2-svp-jkfit.gbs 
    atoms 8-9   entry N          line   263 file /home/aaojha/anaconda3/envs/torsiondrive/share/psi4/basis/def2-svp-jkfit.gbs 
    atoms 10-18 entry H          line    23 file /home/aaojha/anaconda3/envs/torsiondrive/share/psi4/basis/def2-svp-jkfit.gbs 

  ==> Pre-Iterations <==

   -------------------------------------------------------
    Irrep   Nso     Nmo     Nalpha   Nbeta   Ndocc  Nsocc
   -------------------------------------------------------
     A         54      54       0       0       0       0
   -------------------------------------------------------
    Total      54      54      32      32      32       0
   -------------------------------------------------------

  ==> Integral Setup <==

  DFHelper Memory: AOs need 0.024 GiB; user supplied 34.424 GiB. Using in-core AOs.

  ==> MemDFJK: Density-Fitted J/K Matrices <==

    J tasked:                   Yes
    K tasked:                    No
    wK tasked:                   No
    OpenMP threads:               1
    Memory [MiB]:             35250
    Algorithm:                 Core
    Schwarz Cutoff:           1E-12
    Mask sparsity (%):       1.8519
    Fitting Condition:        1E-10

   => Auxiliary Basis Set <=

  Basis Set: (STO-3G AUX)
    Blend: DEF2-SVP-JKFIT
    Number of shells: 279
    Number of basis function: 841
    Number of Cartesian functions: 989
    Spherical Harmonics?: true
    Max angular momentum: 4

  Cached 100.0% of DFT collocation blocks in 0.500 [GiB].

  Minimum eigenvalue in the overlap matrix is 1.8829319765E-01.
  Using Symmetric Orthogonalization.

  SCF Guess: Superposition of Atomic Densities via on-the-fly atomic UHF.

  ==> Iterations <==

                           Total Energy        Delta E     RMS |[F,P]|

   @DF-RKS iter SAD:  -373.14478209844935   -3.73145e+02   0.00000e+00 
   @DF-RKS iter   1:  -376.48737425699892   -3.34259e+00   5.06570e-03 DIIS
   @DF-RKS iter   2:  -376.34622197276758    1.41152e-01   9.85807e-03 DIIS
   @DF-RKS iter   3:  -376.53611723079689   -1.89895e-01   1.68672e-03 DIIS
   @DF-RKS iter   4:  -376.54108585632366   -4.96863e-03   6.86231e-04 DIIS
   @DF-RKS iter   5:  -376.54210623604604   -1.02038e-03   1.56684e-04 DIIS
   @DF-RKS iter   6:  -376.54215397742337   -4.77414e-05   4.33649e-05 DIIS
   @DF-RKS iter   7:  -376.54215733527019   -3.35785e-06   1.20307e-05 DIIS
   @DF-RKS iter   8:  -376.54215759807266   -2.62802e-07   4.28615e-06 DIIS
   @DF-RKS iter   9:  -376.54215763664672   -3.85741e-08   8.34914e-07 DIIS
   @DF-RKS iter  10:  -376.54215763711022   -4.63501e-10   6.89105e-07 DIIS
   @DF-RKS iter  11:  -376.54215763811590   -1.00567e-09   7.17927e-08 DIIS
   @DF-RKS iter  12:  -376.54215763812317   -7.27596e-12   4.22310e-08 DIIS
   @DF-RKS iter  13:  -376.54215763812635   -3.18323e-12   6.64365e-09 DIIS
  Energy and wave function converged.


  ==> Post-Iterations <==

    Orbital Energies [Eh]
    ---------------------

    Doubly Occupied:                                                      

       1A    -14.122501     2A    -14.122418     3A    -10.092021  
       4A     -9.951209     5A     -9.925057     6A     -9.924999  
       7A     -9.913680     8A     -9.910929     9A     -9.910720  
      10A     -1.042011    11A     -0.963189    12A     -0.880531  
      13A     -0.804905    14A     -0.780811    15A     -0.736870  
      16A     -0.677675    17A     -0.666791    18A     -0.635197  
      19A     -0.632005    20A     -0.593850    21A     -0.570213  
      22A     -0.535681    23A     -0.510566    24A     -0.488680  
      25A     -0.485918    26A     -0.480064    27A     -0.417313  
      28A     -0.417189    29A     -0.410098    30A     -0.363180  
      31A     -0.323880    32A     -0.318638  

    Virtual:                                                              

      33A     -0.187168    34A     -0.105572    35A     -0.092745  
      36A      0.012340    37A      0.025232    38A      0.049514  
      39A      0.060708    40A      0.111704    41A      0.123184  
      42A      0.157978    43A      0.187271    44A      0.187936  
      45A      0.218115    46A      0.230100    47A      0.258195  
      48A      0.276233    49A      0.347149    50A      0.350184  
      51A      0.356764    52A      0.372628    53A      0.492232  
      54A      0.534526  

    Final Occupation by Irrep:
              A 
    DOCC [    32 ]

  @DF-RKS Final Energy:  -376.54215763812635

   => Energetics <=

    Nuclear Repulsion Energy =            406.4168740000573621
    One-Electron Energy =               -1303.6931882922999648
    Two-Electron Energy =                 575.0278892153507968
    DFT Exchange-Correlation Energy =     -54.2937325612345063
    Empirical Dispersion Energy =           0.0000000000000000
    VV10 Nonlocal Energy =                  0.0000000000000000
    Total Energy =                       -376.5421576381263549

Computation Completed


Properties will be evaluated at   0.000000,   0.000000,   0.000000 [a0]

Properties computed using the SCF density matrix

  Nuclear Dipole Moment: [e a0]
     X:     1.7673      Y:     0.0025      Z:    -0.0080

  Electronic Dipole Moment: [e a0]
     X:     0.7702      Y:    -0.0037      Z:     0.0030

  Dipole Moment: [e a0]
     X:     2.5375      Y:    -0.0012      Z:    -0.0050     Total:     2.5375

  Dipole Moment: [D]
     X:     6.4496      Y:    -0.0029      Z:    -0.0126     Total:     6.4496


*** tstop() called on aaojha at Fri May 14 09:02:13 2021
Module time:
	user time   =       7.26 seconds =       0.12 minutes
	system time =       0.20 seconds =       0.00 minutes
	total time  =          7 seconds =       0.12 minutes
Total time:
	user time   =       7.26 seconds =       0.12 minutes
	system time =       0.20 seconds =       0.00 minutes
	total time  =          7 seconds =       0.12 minutes

*** tstart() called on aaojha
*** at Fri May 14 09:02:13 2021


         ------------------------------------------------------------
                                   SCF GRAD                          
                          Rob Parrish, Justin Turney,                
                       Andy Simmonett, and Alex Sokolov              
         ------------------------------------------------------------

  ==> Geometry <==

    Molecular point group: c1
    Full point group: C1

    Geometry (in Angstrom), charge = 1, multiplicity = 1:

       Center              X                  Y                   Z               Mass       
    ------------   -----------------  -----------------  -----------------  -----------------
         C            0.185127924238    -0.000851702170     0.003006550188    12.000000000000
         C           -0.533512075762    -1.226479702170    -0.213677049812    12.000000000000
         C           -1.950996175762    -1.217122502170    -0.219276849812    12.000000000000
         C           -2.660573975762     0.001027597830    -0.001037849812    12.000000000000
         C           -1.950117675762     1.218555597830     0.217987450188    12.000000000000
         C           -0.532640175762     1.226181097830     0.214592650188    12.000000000000
         C            1.692009524238    -0.001087002170    -0.001246949812    12.000000000000
         N            2.396240324238    -1.120487202170     0.401570350188    14.003074004430
         N            2.395102324238     1.120102197830    -0.401254649812    14.003074004430
         H            0.010028224238    -2.169764602170    -0.416386049812     1.007825032230
         H           -2.505467575762    -2.158524902170    -0.400344949812     1.007825032230
         H           -3.769163975762     0.001636497830    -0.002122549812     1.007825032230
         H           -2.503855075762     2.160797897830     0.396950150188     1.007825032230
         H            0.011522124238     2.169133297830     0.417118550188     1.007825032230
         H            3.447426724238    -1.166013902170     0.377071250188     1.007825032230
         H            1.882960924238    -1.937960502170     0.816108150188     1.007825032230
         H            3.446328124238     1.166942997830    -0.380866049812     1.007825032230
         H            1.880258524238     1.936442797830    -0.816057949812     1.007825032230

  Nuclear repulsion =  406.416874000057419

  ==> Basis Set <==

  Basis Set: STO-3G
    Blend: STO-3G
    Number of shells: 36
    Number of basis function: 54
    Number of Cartesian functions: 54
    Spherical Harmonics?: true
    Max angular momentum: 1

  ==> DFJKGrad: Density-Fitted SCF Gradients <==

    Gradient:                    1
    J tasked:                  Yes
    K tasked:                   No
    wK tasked:                  No
    OpenMP threads:              1
    Integrals threads:           1
    Memory [MiB]:            35762
    Schwarz Cutoff:          0E+00
    Fitting Condition:       1E-10

   => Auxiliary Basis Set <=

  Basis Set: (STO-3G AUX)
    Blend: DEF2-SVP-JKFIT
    Number of shells: 279
    Number of basis function: 841
    Number of Cartesian functions: 989
    Spherical Harmonics?: true
    Max angular momentum: 4

  ==> DFT Potential <==

   => Composite Functional: BLYP <= 

    BLYP GGA Exchange-Correlation Functional

    P.J. Stephens et. al., J. Phys. Chem., 98, 11623-11627, 1994
    B. Miehlich et. al., Chem. Phys. Lett., 157(3), 200-206 1989


    Deriv               =              1
    GGA                 =           TRUE
    Meta                =          FALSE

    Exchange Hybrid     =          FALSE
    MP2 Hybrid          =          FALSE

   => Exchange Functionals <=

    1.0000     XC_GGA_X_B88

   => Correlation Functionals <=

    1.0000     XC_GGA_C_LYP

   => Molecular Quadrature <=

    Radial Scheme          =       TREUTLER
    Pruning Scheme         =           FLAT
    Nuclear Scheme         =       TREUTLER

    BS radius alpha        =              1
    Pruning alpha          =              1
    Radial Points          =             75
    Spherical Points       =            302
    Total Points           =         395277
    Total Blocks           =           2954
    Max Points             =            256
    Max Functions          =             51


  -Total Gradient:
     Atom            X                  Y                   Z
    ------   -----------------  -----------------  -----------------
       1        0.000041110240    -0.000076885618     0.000710109544
       2        0.000003479960     0.000050458212    -0.000367176641
       3        0.000047990331     0.000073050763     0.000013871010
       4       -0.000092465678    -0.000002337187    -0.000001147128
       5        0.000018688439    -0.000008988354    -0.000007014326
       6       -0.000028670465    -0.000039381670    -0.000001378031
       7       -0.000001292205    -0.000101271753    -0.000707148987
       8       -0.000097965452     0.000003553148     0.000245146463
       9        0.000102904024    -0.000060215387     0.000134410904
      10        0.000015386040     0.000004860784     0.000006813790
      11       -0.000001307675     0.000008928566     0.000005030760
      12       -0.000005960595     0.000004952001     0.000000379953
      13       -0.000007927760    -0.000006035092    -0.000002388735
      14        0.000004180472    -0.000009916297    -0.000006210330
      15        0.000007099958     0.000086870085     0.000021644354
      16        0.000002206493     0.000009306361     0.000064996811
      17        0.000003032858     0.000096768669    -0.000073022200
      18        0.000005476960    -0.000033096327    -0.000036679232


*** tstop() called on aaojha at Fri May 14 09:02:15 2021
Module time:
	user time   =       2.08 seconds =       0.03 minutes
	system time =       0.01 seconds =       0.00 minutes
	total time  =          2 seconds =       0.03 minutes
Total time:
	user time   =       9.34 seconds =       0.16 minutes
	system time =       0.21 seconds =       0.00 minutes
	total time  =          9 seconds =       0.15 minutes

    Psi4 stopped on: Friday, 14 May 2021 09:02AM
    Psi4 wall time for execution: 0:00:09.59

*** Psi4 exiting successfully. Buy a developer a beer!
