
    -----------------------------------------------------------------------
          Psi4: An Open-Source Ab Initio Electronic Structure Package
                               Psi4 1.3.2 release

                         Git: Rev {HEAD} ecbda83 


    R. M. Parrish, L. A. Burns, D. G. A. Smith, A. C. Simmonett,
    A. E. DePrince III, E. G. Hohenstein, U. Bozkaya, A. Yu. Sokolov,
    R. Di Remigio, R. M. Richard, J. F. Gonthier, A. M. James,
    H. R. McAlexander, A. Kumar, M. Saitow, X. Wang, B. P. Pritchard,
    P. Verma, H. F. Schaefer III, K. Patkowski, R. A. King, E. F. Valeev,
    F. A. Evangelista, J. M. Turney, T. D. Crawford, and C. D. Sherrill,
    J. Chem. Theory Comput. 13(7) pp 3185--3197 (2017).
    (doi: 10.1021/acs.jctc.7b00174)


                         Additional Contributions by
    P. Kraus, H. Kruse, M. H. Lechner, M. C. Schieber, R. A. Shaw,
    A. Alenaizan, R. Galvelis, Z. L. Glick, S. Lehtola, and J. P. Misiewicz

    -----------------------------------------------------------------------


    Psi4 started on: Friday, 14 May 2021 10:05AM

    Process ID: 18068
    Host:       aaojha
    PSIDATADIR: /home/aaojha/anaconda3/envs/torsiondrive/share/psi4
    Memory:     500.0 MiB
    Threads:    1
    
  ==> Input File <==

--------------------------------------------------------------------------
memory 50 GB
molecule {
1 1
C           0.1517158     0.0593756     0.0456841
C          -0.5585108    -0.8201917     0.9274011
C          -1.9768045    -0.8500795     0.8823327
C          -2.6829254    -0.0129949    -0.0301512
C          -1.9720158     0.8493188    -0.9156291
C          -0.5533829     0.8762528    -0.8977083
C           1.6677524     0.0262471     0.0272725
N           2.3371165    -0.2836087    -1.1389888
N           2.3778346     0.2052349     1.1965123
H          -0.0066241    -1.4803731     1.6244487
H          -2.5317098    -1.5322279     1.5555522
H          -3.7906268    -0.0369118    -0.0555307
H          -2.5243132     1.4974784    -1.6236303
H           0.0013622     1.5483253    -1.5810830
H           3.3880803    -0.2703451    -1.2186992
H           1.7828269    -0.4573387    -2.0161685
H           3.4262728     0.1147976     1.2524707
H           1.8628472     0.4717408     2.0741740
}
set {
basis STO-3G
}
gradient('BLYP')
--------------------------------------------------------------------------

  Memory set to  46.566 GiB by Python driver.
gradient() will perform analytic gradient computation.

*** tstart() called on aaojha
*** at Fri May 14 10:05:32 2021

   => Loading Basis Set <=

    Name: STO-3G
    Role: ORBITAL
    Keyword: BASIS
    atoms 1-7   entry C          line    61 file /home/aaojha/anaconda3/envs/torsiondrive/share/psi4/basis/sto-3g.gbs 
    atoms 8-9   entry N          line    71 file /home/aaojha/anaconda3/envs/torsiondrive/share/psi4/basis/sto-3g.gbs 
    atoms 10-18 entry H          line    19 file /home/aaojha/anaconda3/envs/torsiondrive/share/psi4/basis/sto-3g.gbs 


         ---------------------------------------------------------
                                   SCF
               by Justin Turney, Rob Parrish, Andy Simmonett
                          and Daniel G. A. Smith
                              RKS Reference
                        1 Threads,  47683 MiB Core
         ---------------------------------------------------------

  ==> Geometry <==

    Molecular point group: c1
    Full point group: C1

    Geometry (in Angstrom), charge = 1, multiplicity = 1:

       Center              X                  Y                   Z               Mass       
    ------------   -----------------  -----------------  -----------------  -----------------
         C            0.180173379117     0.056966576689     0.035049907558    12.000000000000
         C           -0.530053220883    -0.822600723311     0.916766907558    12.000000000000
         C           -1.948346920883    -0.852488523311     0.871698507558    12.000000000000
         C           -2.654467820883    -0.015403923311    -0.040785392442    12.000000000000
         C           -1.943558220883     0.846909776689    -0.926263292442    12.000000000000
         C           -0.524925320883     0.873843776689    -0.908342492442    12.000000000000
         C            1.696209979117     0.023838076689     0.016638307558    12.000000000000
         N            2.365574079117    -0.286017723311    -1.149622992442    14.003074004430
         N            2.406292179117     0.202825876689     1.185878107558    14.003074004430
         H            0.021833479117    -1.482782123311     1.613814507558     1.007825032230
         H           -2.503252220883    -1.534636923311     1.544918007558     1.007825032230
         H           -3.762169220883    -0.039320823311    -0.066164892442     1.007825032230
         H           -2.495855620883     1.495069376689    -1.634264492442     1.007825032230
         H            0.029819779117     1.545916276689    -1.591717192442     1.007825032230
         H            3.416537879117    -0.272754123311    -1.229333392442     1.007825032230
         H            1.811284479117    -0.459747723311    -2.026802692442     1.007825032230
         H            3.454730379117     0.112388576689     1.241836507558     1.007825032230
         H            1.891304779117     0.469331776689     2.063539807558     1.007825032230

  Running in c1 symmetry.

  Rotational constants: A =      0.11588  B =      0.03649  C =      0.03055 [cm^-1]
  Rotational constants: A =   3473.92693  B =   1094.00972  C =    915.86409 [MHz]
  Nuclear repulsion =  405.985922326956313

  Charge       = 1
  Multiplicity = 1
  Electrons    = 64
  Nalpha       = 32
  Nbeta        = 32

  ==> Algorithm <==

  SCF Algorithm Type is DF.
  DIIS enabled.
  MOM disabled.
  Fractional occupation disabled.
  Guess Type is SAD.
  Energy threshold   = 1.00e-08
  Density threshold  = 1.00e-08
  Integral threshold = 0.00e+00

  ==> Primary Basis <==

  Basis Set: STO-3G
    Blend: STO-3G
    Number of shells: 36
    Number of basis function: 54
    Number of Cartesian functions: 54
    Spherical Harmonics?: true
    Max angular momentum: 1

  ==> DFT Potential <==

   => Composite Functional: BLYP <= 

    BLYP GGA Exchange-Correlation Functional

    P.J. Stephens et. al., J. Phys. Chem., 98, 11623-11627, 1994
    B. Miehlich et. al., Chem. Phys. Lett., 157(3), 200-206 1989


    Deriv               =              1
    GGA                 =           TRUE
    Meta                =          FALSE

    Exchange Hybrid     =          FALSE
    MP2 Hybrid          =          FALSE

   => Exchange Functionals <=

    1.0000     XC_GGA_X_B88

   => Correlation Functionals <=

    1.0000     XC_GGA_C_LYP

   => Molecular Quadrature <=

    Radial Scheme          =       TREUTLER
    Pruning Scheme         =           FLAT
    Nuclear Scheme         =       TREUTLER

    BS radius alpha        =              1
    Pruning alpha          =              1
    Radial Points          =             75
    Spherical Points       =            302
    Total Points           =         395611
    Total Blocks           =           2982
    Max Points             =            256
    Max Functions          =             51

   => Loading Basis Set <=

    Name: (STO-3G AUX)
    Role: JKFIT
    Keyword: DF_BASIS_SCF
    atoms 1-7   entry C          line   203 file /home/aaojha/anaconda3/envs/torsiondrive/share/psi4/basis/def2-svp-jkfit.gbs 
    atoms 8-9   entry N          line   263 file /home/aaojha/anaconda3/envs/torsiondrive/share/psi4/basis/def2-svp-jkfit.gbs 
    atoms 10-18 entry H          line    23 file /home/aaojha/anaconda3/envs/torsiondrive/share/psi4/basis/def2-svp-jkfit.gbs 

  ==> Pre-Iterations <==

   -------------------------------------------------------
    Irrep   Nso     Nmo     Nalpha   Nbeta   Ndocc  Nsocc
   -------------------------------------------------------
     A         54      54       0       0       0       0
   -------------------------------------------------------
    Total      54      54      32      32      32       0
   -------------------------------------------------------

  ==> Integral Setup <==

  DFHelper Memory: AOs need 0.024 GiB; user supplied 34.423 GiB. Using in-core AOs.

  ==> MemDFJK: Density-Fitted J/K Matrices <==

    J tasked:                   Yes
    K tasked:                    No
    wK tasked:                   No
    OpenMP threads:               1
    Memory [MiB]:             35249
    Algorithm:                 Core
    Schwarz Cutoff:           1E-12
    Mask sparsity (%):       1.9204
    Fitting Condition:        1E-10

   => Auxiliary Basis Set <=

  Basis Set: (STO-3G AUX)
    Blend: DEF2-SVP-JKFIT
    Number of shells: 279
    Number of basis function: 841
    Number of Cartesian functions: 989
    Spherical Harmonics?: true
    Max angular momentum: 4

  Cached 100.0% of DFT collocation blocks in 0.501 [GiB].

  Minimum eigenvalue in the overlap matrix is 1.8792714224E-01.
  Using Symmetric Orthogonalization.

  SCF Guess: Superposition of Atomic Densities via on-the-fly atomic UHF.

  ==> Iterations <==

                           Total Energy        Delta E     RMS |[F,P]|

   @DF-RKS iter SAD:  -373.14355151613529   -3.73144e+02   0.00000e+00 
   @DF-RKS iter   1:  -376.48273462496456   -3.33918e+00   5.12281e-03 DIIS
   @DF-RKS iter   2:  -376.33501888771241    1.47716e-01   1.01381e-02 DIIS
   @DF-RKS iter   3:  -376.53365672142593   -1.98638e-01   1.56595e-03 DIIS
   @DF-RKS iter   4:  -376.53779183027689   -4.13511e-03   6.72878e-04 DIIS
   @DF-RKS iter   5:  -376.53875354271236   -9.61712e-04   1.66982e-04 DIIS
   @DF-RKS iter   6:  -376.53880883760064   -5.52949e-05   3.95141e-05 DIIS
   @DF-RKS iter   7:  -376.53881150056179   -2.66296e-06   1.45770e-05 DIIS
   @DF-RKS iter   8:  -376.53881186755530   -3.66994e-07   4.59503e-06 DIIS
   @DF-RKS iter   9:  -376.53881191314406   -4.55888e-08   7.70043e-07 DIIS
   @DF-RKS iter  10:  -376.53881191357823   -4.34170e-10   6.09043e-07 DIIS
   @DF-RKS iter  11:  -376.53881191430219   -7.23958e-10   1.33569e-07 DIIS
   @DF-RKS iter  12:  -376.53881191433538   -3.31966e-11   3.37203e-08 DIIS
   @DF-RKS iter  13:  -376.53881191433686   -1.47793e-12   1.64344e-08 DIIS
   @DF-RKS iter  14:  -376.53881191433743   -5.68434e-13   6.11413e-09 DIIS
  Energy and wave function converged.


  ==> Post-Iterations <==

    Orbital Energies [Eh]
    ---------------------

    Doubly Occupied:                                                      

       1A    -14.129714     2A    -14.129444     3A    -10.095997  
       4A     -9.944616     5A     -9.918910     6A     -9.918090  
       7A     -9.906507     8A     -9.905156     9A     -9.904764  
      10A     -1.046573    11A     -0.968372    12A     -0.876485  
      13A     -0.801842    14A     -0.775400    15A     -0.736590  
      16A     -0.679041    17A     -0.662752    18A     -0.642221  
      19A     -0.627944    20A     -0.596595    21A     -0.568547  
      22A     -0.528885    23A     -0.515047    24A     -0.481660  
      25A     -0.480815    26A     -0.473131    27A     -0.415595  
      28A     -0.410982    29A     -0.404969    30A     -0.368895  
      31A     -0.319065    32A     -0.313295  

    Virtual:                                                              

      33A     -0.183101    34A     -0.106045    35A     -0.100668  
      36A      0.010236    37A      0.022388    38A      0.050574  
      39A      0.056651    40A      0.114755    41A      0.119212  
      42A      0.164974    43A      0.187509    44A      0.194864  
      45A      0.232576    46A      0.235774    47A      0.255818  
      48A      0.281212    49A      0.348646    50A      0.352327  
      51A      0.360011    52A      0.369952    53A      0.495985  
      54A      0.540333  

    Final Occupation by Irrep:
              A 
    DOCC [    32 ]

  @DF-RKS Final Energy:  -376.53881191433743

   => Energetics <=

    Nuclear Repulsion Energy =            405.9859223269563131
    One-Electron Energy =               -1302.9468001759735216
    Two-Electron Energy =                 574.7148720722397002
    DFT Exchange-Correlation Energy =     -54.2928061375599569
    Empirical Dispersion Energy =           0.0000000000000000
    VV10 Nonlocal Energy =                  0.0000000000000000
    Total Energy =                       -376.5388119143374297

Computation Completed


Properties will be evaluated at   0.000000,   0.000000,   0.000000 [a0]

Properties computed using the SCF density matrix

  Nuclear Dipole Moment: [e a0]
     X:     1.7338      Y:    -0.1559      Z:    -0.0790

  Electronic Dipole Moment: [e a0]
     X:     0.9868      Y:     0.1392      Z:     0.0717

  Dipole Moment: [e a0]
     X:     2.7206      Y:    -0.0167      Z:    -0.0073     Total:     2.7207

  Dipole Moment: [D]
     X:     6.9152      Y:    -0.0423      Z:    -0.0186     Total:     6.9153


*** tstop() called on aaojha at Fri May 14 10:05:39 2021
Module time:
	user time   =       7.12 seconds =       0.12 minutes
	system time =       0.21 seconds =       0.00 minutes
	total time  =          7 seconds =       0.12 minutes
Total time:
	user time   =       7.12 seconds =       0.12 minutes
	system time =       0.21 seconds =       0.00 minutes
	total time  =          7 seconds =       0.12 minutes

*** tstart() called on aaojha
*** at Fri May 14 10:05:39 2021


         ------------------------------------------------------------
                                   SCF GRAD                          
                          Rob Parrish, Justin Turney,                
                       Andy Simmonett, and Alex Sokolov              
         ------------------------------------------------------------

  ==> Geometry <==

    Molecular point group: c1
    Full point group: C1

    Geometry (in Angstrom), charge = 1, multiplicity = 1:

       Center              X                  Y                   Z               Mass       
    ------------   -----------------  -----------------  -----------------  -----------------
         C            0.180173379117     0.056966576689     0.035049907558    12.000000000000
         C           -0.530053220883    -0.822600723311     0.916766907558    12.000000000000
         C           -1.948346920883    -0.852488523311     0.871698507558    12.000000000000
         C           -2.654467820883    -0.015403923311    -0.040785392442    12.000000000000
         C           -1.943558220883     0.846909776689    -0.926263292442    12.000000000000
         C           -0.524925320883     0.873843776689    -0.908342492442    12.000000000000
         C            1.696209979117     0.023838076689     0.016638307558    12.000000000000
         N            2.365574079117    -0.286017723311    -1.149622992442    14.003074004430
         N            2.406292179117     0.202825876689     1.185878107558    14.003074004430
         H            0.021833479117    -1.482782123311     1.613814507558     1.007825032230
         H           -2.503252220883    -1.534636923311     1.544918007558     1.007825032230
         H           -3.762169220883    -0.039320823311    -0.066164892442     1.007825032230
         H           -2.495855620883     1.495069376689    -1.634264492442     1.007825032230
         H            0.029819779117     1.545916276689    -1.591717192442     1.007825032230
         H            3.416537879117    -0.272754123311    -1.229333392442     1.007825032230
         H            1.811284479117    -0.459747723311    -2.026802692442     1.007825032230
         H            3.454730379117     0.112388576689     1.241836507558     1.007825032230
         H            1.891304779117     0.469331776689     2.063539807558     1.007825032230

  Nuclear repulsion =  405.985922326956313

  ==> Basis Set <==

  Basis Set: STO-3G
    Blend: STO-3G
    Number of shells: 36
    Number of basis function: 54
    Number of Cartesian functions: 54
    Spherical Harmonics?: true
    Max angular momentum: 1

  ==> DFJKGrad: Density-Fitted SCF Gradients <==

    Gradient:                    1
    J tasked:                  Yes
    K tasked:                   No
    wK tasked:                  No
    OpenMP threads:              1
    Integrals threads:           1
    Memory [MiB]:            35762
    Schwarz Cutoff:          0E+00
    Fitting Condition:       1E-10

   => Auxiliary Basis Set <=

  Basis Set: (STO-3G AUX)
    Blend: DEF2-SVP-JKFIT
    Number of shells: 279
    Number of basis function: 841
    Number of Cartesian functions: 989
    Spherical Harmonics?: true
    Max angular momentum: 4

  ==> DFT Potential <==

   => Composite Functional: BLYP <= 

    BLYP GGA Exchange-Correlation Functional

    P.J. Stephens et. al., J. Phys. Chem., 98, 11623-11627, 1994
    B. Miehlich et. al., Chem. Phys. Lett., 157(3), 200-206 1989


    Deriv               =              1
    GGA                 =           TRUE
    Meta                =          FALSE

    Exchange Hybrid     =          FALSE
    MP2 Hybrid          =          FALSE

   => Exchange Functionals <=

    1.0000     XC_GGA_X_B88

   => Correlation Functionals <=

    1.0000     XC_GGA_C_LYP

   => Molecular Quadrature <=

    Radial Scheme          =       TREUTLER
    Pruning Scheme         =           FLAT
    Nuclear Scheme         =       TREUTLER

    BS radius alpha        =              1
    Pruning alpha          =              1
    Radial Points          =             75
    Spherical Points       =            302
    Total Points           =         395611
    Total Blocks           =           2982
    Max Points             =            256
    Max Functions          =             51


  -Total Gradient:
     Atom            X                  Y                   Z
    ------   -----------------  -----------------  -----------------
       1        0.000101998438     0.002513228833     0.005225836262
       2       -0.000093491993    -0.003150259969    -0.003203980384
       3        0.000014649517     0.000021200571    -0.000021037947
       4       -0.000029893188    -0.000002653300     0.000002673863
       5       -0.000002894745     0.000001830027    -0.000002646408
       6        0.000002773572    -0.000005945475     0.000018043843
       7        0.000094314902     0.005148396582    -0.003167443959
       8       -0.000087182024    -0.004520957678     0.001142019925
       9        0.000003741973     0.000025102026    -0.000004459779
      10        0.000003743061     0.000004003607    -0.000000399287
      11        0.000000242245     0.000001820578    -0.000001772963
      12       -0.000002475160     0.000000779173    -0.000002305096
      13       -0.000004025655    -0.000002661049     0.000001663151
      14       -0.000002001946    -0.000002208319     0.000001943797
      15       -0.000002073193    -0.000013502094     0.000000677794
      16        0.000003811198    -0.000008215350     0.000008061316
      17       -0.000002365864    -0.000000069491     0.000017516243
      18        0.000001443031    -0.000001217678     0.000001015023


*** tstop() called on aaojha at Fri May 14 10:05:41 2021
Module time:
	user time   =       1.97 seconds =       0.03 minutes
	system time =       0.01 seconds =       0.00 minutes
	total time  =          2 seconds =       0.03 minutes
Total time:
	user time   =       9.10 seconds =       0.15 minutes
	system time =       0.22 seconds =       0.00 minutes
	total time  =          9 seconds =       0.15 minutes

    Psi4 stopped on: Friday, 14 May 2021 10:05AM
    Psi4 wall time for execution: 0:00:09.38

*** Psi4 exiting successfully. Buy a developer a beer!
