
    -----------------------------------------------------------------------
          Psi4: An Open-Source Ab Initio Electronic Structure Package
                               Psi4 1.3.2 release

                         Git: Rev {HEAD} ecbda83 


    R. M. Parrish, L. A. Burns, D. G. A. Smith, A. C. Simmonett,
    A. E. DePrince III, E. G. Hohenstein, U. Bozkaya, A. Yu. Sokolov,
    R. Di Remigio, R. M. Richard, J. F. Gonthier, A. M. James,
    H. R. McAlexander, A. Kumar, M. Saitow, X. Wang, B. P. Pritchard,
    P. Verma, H. F. Schaefer III, K. Patkowski, R. A. King, E. F. Valeev,
    F. A. Evangelista, J. M. Turney, T. D. Crawford, and C. D. Sherrill,
    J. Chem. Theory Comput. 13(7) pp 3185--3197 (2017).
    (doi: 10.1021/acs.jctc.7b00174)


                         Additional Contributions by
    P. Kraus, H. Kruse, M. H. Lechner, M. C. Schieber, R. A. Shaw,
    A. Alenaizan, R. Galvelis, Z. L. Glick, S. Lehtola, and J. P. Misiewicz

    -----------------------------------------------------------------------


    Psi4 started on: Friday, 14 May 2021 09:08AM

    Process ID: 29775
    Host:       aaojha
    PSIDATADIR: /home/aaojha/anaconda3/envs/torsiondrive/share/psi4
    Memory:     500.0 MiB
    Threads:    1
    
  ==> Input File <==

--------------------------------------------------------------------------
memory 50 GB
molecule {
1 1
C           0.1619481    -0.0019667     0.0038696
C          -0.5572307    -1.2272327    -0.2133128
C          -1.9746927    -1.2173501    -0.2191802
C          -2.6834911     0.0012436    -0.0009345
C          -1.9726587     1.2184693     0.2185440
C          -0.5551880     1.2254532     0.2154909
C           1.6688603    -0.0029077    -0.0006099
N           2.3731884    -1.1224686     0.4014279
N           2.3723418     1.1180950    -0.4002043
H          -0.0142844    -2.1708666    -0.4160248
H          -2.5295746    -2.1584515    -0.4005795
H          -3.7920779     0.0024193    -0.0022578
H          -2.5260266     2.1609321     0.3974960
H          -0.0107788     2.1681343     0.4186708
H           3.4240726    -1.1707666     0.3711532
H           1.8593465    -1.9433226     0.8083993
H           3.4234058     1.1657218    -0.3753604
H           1.8576276     1.9380743    -0.8078319
}
set {
basis STO-3G
}
gradient('BLYP')
--------------------------------------------------------------------------

  Memory set to  46.566 GiB by Python driver.
gradient() will perform analytic gradient computation.

*** tstart() called on aaojha
*** at Fri May 14 09:08:20 2021

   => Loading Basis Set <=

    Name: STO-3G
    Role: ORBITAL
    Keyword: BASIS
    atoms 1-7   entry C          line    61 file /home/aaojha/anaconda3/envs/torsiondrive/share/psi4/basis/sto-3g.gbs 
    atoms 8-9   entry N          line    71 file /home/aaojha/anaconda3/envs/torsiondrive/share/psi4/basis/sto-3g.gbs 
    atoms 10-18 entry H          line    19 file /home/aaojha/anaconda3/envs/torsiondrive/share/psi4/basis/sto-3g.gbs 


         ---------------------------------------------------------
                                   SCF
               by Justin Turney, Rob Parrish, Andy Simmonett
                          and Daniel G. A. Smith
                              RKS Reference
                        1 Threads,  47683 MiB Core
         ---------------------------------------------------------

  ==> Geometry <==

    Molecular point group: c1
    Full point group: C1

    Geometry (in Angstrom), charge = 1, multiplicity = 1:

       Center              X                  Y                   Z               Mass       
    ------------   -----------------  -----------------  -----------------  -----------------
         C            0.185011811304    -0.000967942573     0.003397545932    12.000000000000
         C           -0.534166988696    -1.226233942573    -0.213784854068    12.000000000000
         C           -1.951628988696    -1.216351342573    -0.219652254068    12.000000000000
         C           -2.660427388696     0.002242357427    -0.001406554068    12.000000000000
         C           -1.949594988696     1.219468057427     0.218071945932    12.000000000000
         C           -0.532124288696     1.226451957427     0.215018845932    12.000000000000
         C            1.691924011304    -0.001908942573    -0.001081954068    12.000000000000
         N            2.396252111304    -1.121469842573     0.400955845932    14.003074004430
         N            2.395405511304     1.119093757427    -0.400676354068    14.003074004430
         H            0.008779311304    -2.169867842573    -0.416496854068     1.007825032230
         H           -2.506510888696    -2.157452742573    -0.401051554068     1.007825032230
         H           -3.769014188696     0.003418057427    -0.002729854068     1.007825032230
         H           -2.502962888696     2.161930857427     0.397023945932     1.007825032230
         H            0.012284911304     2.169133057427     0.418198745932     1.007825032230
         H            3.447136311304    -1.169767842573     0.370681145932     1.007825032230
         H            1.882410211304    -1.942323842573     0.807927245932     1.007825032230
         H            3.446469511304     1.166720557427    -0.375832454068     1.007825032230
         H            1.880691311304     1.939073057427    -0.808303954068     1.007825032230

  Running in c1 symmetry.

  Rotational constants: A =      0.11618  B =      0.03783  C =      0.02943 [cm^-1]
  Rotational constants: A =   3483.09913  B =   1134.00922  C =    882.43389 [MHz]
  Nuclear repulsion =  406.418925752479481

  Charge       = 1
  Multiplicity = 1
  Electrons    = 64
  Nalpha       = 32
  Nbeta        = 32

  ==> Algorithm <==

  SCF Algorithm Type is DF.
  DIIS enabled.
  MOM disabled.
  Fractional occupation disabled.
  Guess Type is SAD.
  Energy threshold   = 1.00e-08
  Density threshold  = 1.00e-08
  Integral threshold = 0.00e+00

  ==> Primary Basis <==

  Basis Set: STO-3G
    Blend: STO-3G
    Number of shells: 36
    Number of basis function: 54
    Number of Cartesian functions: 54
    Spherical Harmonics?: true
    Max angular momentum: 1

  ==> DFT Potential <==

   => Composite Functional: BLYP <= 

    BLYP GGA Exchange-Correlation Functional

    P.J. Stephens et. al., J. Phys. Chem., 98, 11623-11627, 1994
    B. Miehlich et. al., Chem. Phys. Lett., 157(3), 200-206 1989


    Deriv               =              1
    GGA                 =           TRUE
    Meta                =          FALSE

    Exchange Hybrid     =          FALSE
    MP2 Hybrid          =          FALSE

   => Exchange Functionals <=

    1.0000     XC_GGA_X_B88

   => Correlation Functionals <=

    1.0000     XC_GGA_C_LYP

   => Molecular Quadrature <=

    Radial Scheme          =       TREUTLER
    Pruning Scheme         =           FLAT
    Nuclear Scheme         =       TREUTLER

    BS radius alpha        =              1
    Pruning alpha          =              1
    Radial Points          =             75
    Spherical Points       =            302
    Total Points           =         395278
    Total Blocks           =           2951
    Max Points             =            256
    Max Functions          =             51

   => Loading Basis Set <=

    Name: (STO-3G AUX)
    Role: JKFIT
    Keyword: DF_BASIS_SCF
    atoms 1-7   entry C          line   203 file /home/aaojha/anaconda3/envs/torsiondrive/share/psi4/basis/def2-svp-jkfit.gbs 
    atoms 8-9   entry N          line   263 file /home/aaojha/anaconda3/envs/torsiondrive/share/psi4/basis/def2-svp-jkfit.gbs 
    atoms 10-18 entry H          line    23 file /home/aaojha/anaconda3/envs/torsiondrive/share/psi4/basis/def2-svp-jkfit.gbs 

  ==> Pre-Iterations <==

   -------------------------------------------------------
    Irrep   Nso     Nmo     Nalpha   Nbeta   Ndocc  Nsocc
   -------------------------------------------------------
     A         54      54       0       0       0       0
   -------------------------------------------------------
    Total      54      54      32      32      32       0
   -------------------------------------------------------

  ==> Integral Setup <==

  DFHelper Memory: AOs need 0.024 GiB; user supplied 34.424 GiB. Using in-core AOs.

  ==> MemDFJK: Density-Fitted J/K Matrices <==

    J tasked:                   Yes
    K tasked:                    No
    wK tasked:                   No
    OpenMP threads:               1
    Memory [MiB]:             35250
    Algorithm:                 Core
    Schwarz Cutoff:           1E-12
    Mask sparsity (%):       1.8519
    Fitting Condition:        1E-10

   => Auxiliary Basis Set <=

  Basis Set: (STO-3G AUX)
    Blend: DEF2-SVP-JKFIT
    Number of shells: 279
    Number of basis function: 841
    Number of Cartesian functions: 989
    Spherical Harmonics?: true
    Max angular momentum: 4

  Cached 100.0% of DFT collocation blocks in 0.500 [GiB].

  Minimum eigenvalue in the overlap matrix is 1.8829310693E-01.
  Using Symmetric Orthogonalization.

  SCF Guess: Superposition of Atomic Densities via on-the-fly atomic UHF.

  ==> Iterations <==

                           Total Energy        Delta E     RMS |[F,P]|

   @DF-RKS iter SAD:  -373.14496303672354   -3.73145e+02   0.00000e+00 
   @DF-RKS iter   1:  -376.48744221664481   -3.34248e+00   5.06390e-03 DIIS
   @DF-RKS iter   2:  -376.34646497930362    1.40977e-01   9.85333e-03 DIIS
   @DF-RKS iter   3:  -376.53612754096787   -1.89663e-01   1.68560e-03 DIIS
   @DF-RKS iter   4:  -376.54108967356785   -4.96213e-03   6.85333e-04 DIIS
   @DF-RKS iter   5:  -376.54210745596640   -1.01778e-03   1.56614e-04 DIIS
   @DF-RKS iter   6:  -376.54215517566297   -4.77197e-05   4.33272e-05 DIIS
   @DF-RKS iter   7:  -376.54215852873313   -3.35307e-06   1.20063e-05 DIIS
   @DF-RKS iter   8:  -376.54215879084336   -2.62110e-07   4.25842e-06 DIIS
   @DF-RKS iter   9:  -376.54215882897222   -3.81289e-08   8.19273e-07 DIIS
   @DF-RKS iter  10:  -376.54215882939582   -4.23597e-10   6.86737e-07 DIIS
   @DF-RKS iter  11:  -376.54215883039205   -9.96238e-10   7.25803e-08 DIIS
   @DF-RKS iter  12:  -376.54215883039956   -7.50333e-12   4.22446e-08 DIIS
   @DF-RKS iter  13:  -376.54215883040308   -3.52429e-12   6.65122e-09 DIIS
  Energy and wave function converged.


  ==> Post-Iterations <==

    Orbital Energies [Eh]
    ---------------------

    Doubly Occupied:                                                      

       1A    -14.122446     2A    -14.122362     3A    -10.092012  
       4A     -9.951279     5A     -9.925133     6A     -9.925075  
       7A     -9.913721     8A     -9.910984     9A     -9.910774  
      10A     -1.041982    11A     -0.963126    12A     -0.880570  
      13A     -0.804917    14A     -0.780881    15A     -0.736890  
      16A     -0.677706    17A     -0.666802    18A     -0.635228  
      19A     -0.632067    20A     -0.593798    21A     -0.570255  
      22A     -0.535740    23A     -0.510644    24A     -0.488720  
      25A     -0.485957    26A     -0.480128    27A     -0.417360  
      28A     -0.417208    29A     -0.410178    30A     -0.363080  
      31A     -0.323915    32A     -0.318695  

    Virtual:                                                              

      33A     -0.187115    34A     -0.105624    35A     -0.092690  
      36A      0.012289    37A      0.025267    38A      0.049347  
      39A      0.060797    40A      0.111697    41A      0.123234  
      42A      0.157896    43A      0.187394    44A      0.187808  
      45A      0.218105    46A      0.230033    47A      0.258337  
      48A      0.276260    49A      0.347119    50A      0.350272  
      51A      0.356695    52A      0.372571    53A      0.492178  
      54A      0.534487  

    Final Occupation by Irrep:
              A 
    DOCC [    32 ]

  @DF-RKS Final Energy:  -376.54215883040308

   => Energetics <=

    Nuclear Repulsion Energy =            406.4189257524794812
    One-Electron Energy =               -1303.6955934433296989
    Two-Electron Energy =                 575.0282631173715799
    DFT Exchange-Correlation Energy =     -54.2937542569244869
    Empirical Dispersion Energy =           0.0000000000000000
    VV10 Nonlocal Energy =                  0.0000000000000000
    Total Energy =                       -376.5421588304031388

Computation Completed


Properties will be evaluated at   0.000000,   0.000000,   0.000000 [a0]

Properties computed using the SCF density matrix

  Nuclear Dipole Moment: [e a0]
     X:     1.7666      Y:     0.0008      Z:    -0.0099

  Electronic Dipole Moment: [e a0]
     X:     0.7692      Y:    -0.0037      Z:     0.0037

  Dipole Moment: [e a0]
     X:     2.5358      Y:    -0.0029      Z:    -0.0062     Total:     2.5359

  Dipole Moment: [D]
     X:     6.4455      Y:    -0.0073      Z:    -0.0158     Total:     6.4455


*** tstop() called on aaojha at Fri May 14 09:08:27 2021
Module time:
	user time   =       7.38 seconds =       0.12 minutes
	system time =       0.16 seconds =       0.00 minutes
	total time  =          7 seconds =       0.12 minutes
Total time:
	user time   =       7.38 seconds =       0.12 minutes
	system time =       0.16 seconds =       0.00 minutes
	total time  =          7 seconds =       0.12 minutes

*** tstart() called on aaojha
*** at Fri May 14 09:08:27 2021


         ------------------------------------------------------------
                                   SCF GRAD                          
                          Rob Parrish, Justin Turney,                
                       Andy Simmonett, and Alex Sokolov              
         ------------------------------------------------------------

  ==> Geometry <==

    Molecular point group: c1
    Full point group: C1

    Geometry (in Angstrom), charge = 1, multiplicity = 1:

       Center              X                  Y                   Z               Mass       
    ------------   -----------------  -----------------  -----------------  -----------------
         C            0.185011811304    -0.000967942573     0.003397545932    12.000000000000
         C           -0.534166988696    -1.226233942573    -0.213784854068    12.000000000000
         C           -1.951628988696    -1.216351342573    -0.219652254068    12.000000000000
         C           -2.660427388696     0.002242357427    -0.001406554068    12.000000000000
         C           -1.949594988696     1.219468057427     0.218071945932    12.000000000000
         C           -0.532124288696     1.226451957427     0.215018845932    12.000000000000
         C            1.691924011304    -0.001908942573    -0.001081954068    12.000000000000
         N            2.396252111304    -1.121469842573     0.400955845932    14.003074004430
         N            2.395405511304     1.119093757427    -0.400676354068    14.003074004430
         H            0.008779311304    -2.169867842573    -0.416496854068     1.007825032230
         H           -2.506510888696    -2.157452742573    -0.401051554068     1.007825032230
         H           -3.769014188696     0.003418057427    -0.002729854068     1.007825032230
         H           -2.502962888696     2.161930857427     0.397023945932     1.007825032230
         H            0.012284911304     2.169133057427     0.418198745932     1.007825032230
         H            3.447136311304    -1.169767842573     0.370681145932     1.007825032230
         H            1.882410211304    -1.942323842573     0.807927245932     1.007825032230
         H            3.446469511304     1.166720557427    -0.375832454068     1.007825032230
         H            1.880691311304     1.939073057427    -0.808303954068     1.007825032230

  Nuclear repulsion =  406.418925752479481

  ==> Basis Set <==

  Basis Set: STO-3G
    Blend: STO-3G
    Number of shells: 36
    Number of basis function: 54
    Number of Cartesian functions: 54
    Spherical Harmonics?: true
    Max angular momentum: 1

  ==> DFJKGrad: Density-Fitted SCF Gradients <==

    Gradient:                    1
    J tasked:                  Yes
    K tasked:                   No
    wK tasked:                  No
    OpenMP threads:              1
    Integrals threads:           1
    Memory [MiB]:            35762
    Schwarz Cutoff:          0E+00
    Fitting Condition:       1E-10

   => Auxiliary Basis Set <=

  Basis Set: (STO-3G AUX)
    Blend: DEF2-SVP-JKFIT
    Number of shells: 279
    Number of basis function: 841
    Number of Cartesian functions: 989
    Spherical Harmonics?: true
    Max angular momentum: 4

  ==> DFT Potential <==

   => Composite Functional: BLYP <= 

    BLYP GGA Exchange-Correlation Functional

    P.J. Stephens et. al., J. Phys. Chem., 98, 11623-11627, 1994
    B. Miehlich et. al., Chem. Phys. Lett., 157(3), 200-206 1989


    Deriv               =              1
    GGA                 =           TRUE
    Meta                =          FALSE

    Exchange Hybrid     =          FALSE
    MP2 Hybrid          =          FALSE

   => Exchange Functionals <=

    1.0000     XC_GGA_X_B88

   => Correlation Functionals <=

    1.0000     XC_GGA_C_LYP

   => Molecular Quadrature <=

    Radial Scheme          =       TREUTLER
    Pruning Scheme         =           FLAT
    Nuclear Scheme         =       TREUTLER

    BS radius alpha        =              1
    Pruning alpha          =              1
    Radial Points          =             75
    Spherical Points       =            302
    Total Points           =         395278
    Total Blocks           =           2951
    Max Points             =            256
    Max Functions          =             51


  -Total Gradient:
     Atom            X                  Y                   Z
    ------   -----------------  -----------------  -----------------
       1       -0.000003740642    -0.000034383068     0.000727083334
       2        0.000000474764     0.000054043276    -0.000379689184
       3        0.000009331184     0.000004211511     0.000014410864
       4        0.000008291958     0.000001467427    -0.000009017769
       5       -0.000004735367     0.000013948637     0.000009015738
       6       -0.000009084310     0.000001937324    -0.000037355360
       7       -0.000022126709    -0.000139782936    -0.000686143058
       8       -0.000015075068     0.000105096423     0.000357251037
       9        0.000041160153    -0.000077391249    -0.000001634234
      10       -0.000000172976    -0.000007948485     0.000012733505
      11        0.000003680971    -0.000001373485    -0.000000680473
      12        0.000001878696     0.000001812563     0.000001661507
      13       -0.000000148403     0.000001768003    -0.000004735787
      14        0.000000411303    -0.000001530564     0.000007231724
      15        0.000004916308     0.000040279269    -0.000016388909
      16       -0.000001141089    -0.000003093923     0.000005722430
      17        0.000000348631     0.000045186066    -0.000011078075
      18        0.000000270268    -0.000003679814     0.000011854992


*** tstop() called on aaojha at Fri May 14 09:08:29 2021
Module time:
	user time   =       2.10 seconds =       0.04 minutes
	system time =       0.01 seconds =       0.00 minutes
	total time  =          2 seconds =       0.03 minutes
Total time:
	user time   =       9.48 seconds =       0.16 minutes
	system time =       0.17 seconds =       0.00 minutes
	total time  =          9 seconds =       0.15 minutes

    Psi4 stopped on: Friday, 14 May 2021 09:08AM
    Psi4 wall time for execution: 0:00:09.71

*** Psi4 exiting successfully. Buy a developer a beer!
