
    -----------------------------------------------------------------------
          Psi4: An Open-Source Ab Initio Electronic Structure Package
                               Psi4 1.3.2 release

                         Git: Rev {HEAD} ecbda83 


    R. M. Parrish, L. A. Burns, D. G. A. Smith, A. C. Simmonett,
    A. E. DePrince III, E. G. Hohenstein, U. Bozkaya, A. Yu. Sokolov,
    R. Di Remigio, R. M. Richard, J. F. Gonthier, A. M. James,
    H. R. McAlexander, A. Kumar, M. Saitow, X. Wang, B. P. Pritchard,
    P. Verma, H. F. Schaefer III, K. Patkowski, R. A. King, E. F. Valeev,
    F. A. Evangelista, J. M. Turney, T. D. Crawford, and C. D. Sherrill,
    J. Chem. Theory Comput. 13(7) pp 3185--3197 (2017).
    (doi: 10.1021/acs.jctc.7b00174)


                         Additional Contributions by
    P. Kraus, H. Kruse, M. H. Lechner, M. C. Schieber, R. A. Shaw,
    A. Alenaizan, R. Galvelis, Z. L. Glick, S. Lehtola, and J. P. Misiewicz

    -----------------------------------------------------------------------


    Psi4 started on: Friday, 14 May 2021 09:34AM

    Process ID: 3374
    Host:       aaojha
    PSIDATADIR: /home/aaojha/anaconda3/envs/torsiondrive/share/psi4
    Memory:     500.0 MiB
    Threads:    1
    
  ==> Input File <==

--------------------------------------------------------------------------
memory 50 GB
molecule {
1 1
C           0.1613742    -0.0029434    -0.0043532
C          -0.5591649    -1.2191731     0.2555058
C          -1.9765892    -1.2066799     0.2610086
C          -2.6854346     0.0036665     0.0012183
C          -1.9726094     1.2113601    -0.2600645
C          -0.5551557     1.2171060    -0.2575835
C           1.6683514    -0.0049438     0.0012729
N           2.3726206    -1.1382371    -0.3602664
N           2.3726995     1.1287955     0.3614050
H          -0.0175807    -2.1560277     0.4907897
H          -2.5322415    -2.1404324     0.4749805
H          -3.7940363     0.0058834     0.0027652
H          -2.5248193     2.1478202    -0.4711661
H          -0.0102848     2.1518555    -0.4934973
H           3.4236344    -1.1827748    -0.3291615
H           1.8600290    -1.9723614    -0.7409566
H           3.4239161     1.1722133     0.3352837
H           1.8597656     1.9631149     0.7412066
}
set {
basis STO-3G
}
gradient('BLYP')
--------------------------------------------------------------------------

  Memory set to  46.566 GiB by Python driver.
gradient() will perform analytic gradient computation.

*** tstart() called on aaojha
*** at Fri May 14 09:34:21 2021

   => Loading Basis Set <=

    Name: STO-3G
    Role: ORBITAL
    Keyword: BASIS
    atoms 1-7   entry C          line    61 file /home/aaojha/anaconda3/envs/torsiondrive/share/psi4/basis/sto-3g.gbs 
    atoms 8-9   entry N          line    71 file /home/aaojha/anaconda3/envs/torsiondrive/share/psi4/basis/sto-3g.gbs 
    atoms 10-18 entry H          line    19 file /home/aaojha/anaconda3/envs/torsiondrive/share/psi4/basis/sto-3g.gbs 


         ---------------------------------------------------------
                                   SCF
               by Justin Turney, Rob Parrish, Andy Simmonett
                          and Daniel G. A. Smith
                              RKS Reference
                        1 Threads,  47683 MiB Core
         ---------------------------------------------------------

  ==> Geometry <==

    Molecular point group: c1
    Full point group: C1

    Geometry (in Angstrom), charge = 1, multiplicity = 1:

       Center              X                  Y                   Z               Mass       
    ------------   -----------------  -----------------  -----------------  -----------------
         C            0.185161425217    -0.001602963800    -0.004273259360    12.000000000000
         C           -0.535377674783    -1.217832663800     0.255585740640    12.000000000000
         C           -1.952801974783    -1.205339463800     0.261088540640    12.000000000000
         C           -2.661647374783     0.005006936200     0.001298240640    12.000000000000
         C           -1.948822174783     1.212700536200    -0.259984559360    12.000000000000
         C           -0.531368474783     1.218446436200    -0.257503559360    12.000000000000
         C            1.692138625217    -0.003603363800     0.001352840640    12.000000000000
         N            2.396407825217    -1.136896663800    -0.360186459360    14.003074004430
         N            2.396486725217     1.130135936200     0.361484940640    14.003074004430
         H            0.006206525217    -2.154687263800     0.490869640640     1.007825032230
         H           -2.508454274783    -2.139091963800     0.475060440640     1.007825032230
         H           -3.770249074783     0.007223836200     0.002845140640     1.007825032230
         H           -2.501032074783     2.149160636200    -0.471086159360     1.007825032230
         H            0.013502425217     2.153195936200    -0.493417359360     1.007825032230
         H            3.447421625217    -1.181434363800    -0.329081559360     1.007825032230
         H            1.883816225217    -1.971020963800    -0.740876659360     1.007825032230
         H            3.447703325217     1.173553736200     0.335363640640     1.007825032230
         H            1.883552825217     1.964455336200     0.741286540640     1.007825032230

  Running in c1 symmetry.

  Rotational constants: A =      0.11624  B =      0.03781  C =      0.02943 [cm^-1]
  Rotational constants: A =   3484.89392  B =   1133.48536  C =    882.15121 [MHz]
  Nuclear repulsion =  406.398769205598740

  Charge       = 1
  Multiplicity = 1
  Electrons    = 64
  Nalpha       = 32
  Nbeta        = 32

  ==> Algorithm <==

  SCF Algorithm Type is DF.
  DIIS enabled.
  MOM disabled.
  Fractional occupation disabled.
  Guess Type is SAD.
  Energy threshold   = 1.00e-08
  Density threshold  = 1.00e-08
  Integral threshold = 0.00e+00

  ==> Primary Basis <==

  Basis Set: STO-3G
    Blend: STO-3G
    Number of shells: 36
    Number of basis function: 54
    Number of Cartesian functions: 54
    Spherical Harmonics?: true
    Max angular momentum: 1

  ==> DFT Potential <==

   => Composite Functional: BLYP <= 

    BLYP GGA Exchange-Correlation Functional

    P.J. Stephens et. al., J. Phys. Chem., 98, 11623-11627, 1994
    B. Miehlich et. al., Chem. Phys. Lett., 157(3), 200-206 1989


    Deriv               =              1
    GGA                 =           TRUE
    Meta                =          FALSE

    Exchange Hybrid     =          FALSE
    MP2 Hybrid          =          FALSE

   => Exchange Functionals <=

    1.0000     XC_GGA_X_B88

   => Correlation Functionals <=

    1.0000     XC_GGA_C_LYP

   => Molecular Quadrature <=

    Radial Scheme          =       TREUTLER
    Pruning Scheme         =           FLAT
    Nuclear Scheme         =       TREUTLER

    BS radius alpha        =              1
    Pruning alpha          =              1
    Radial Points          =             75
    Spherical Points       =            302
    Total Points           =         395278
    Total Blocks           =           2961
    Max Points             =            256
    Max Functions          =             51

   => Loading Basis Set <=

    Name: (STO-3G AUX)
    Role: JKFIT
    Keyword: DF_BASIS_SCF
    atoms 1-7   entry C          line   203 file /home/aaojha/anaconda3/envs/torsiondrive/share/psi4/basis/def2-svp-jkfit.gbs 
    atoms 8-9   entry N          line   263 file /home/aaojha/anaconda3/envs/torsiondrive/share/psi4/basis/def2-svp-jkfit.gbs 
    atoms 10-18 entry H          line    23 file /home/aaojha/anaconda3/envs/torsiondrive/share/psi4/basis/def2-svp-jkfit.gbs 

  ==> Pre-Iterations <==

   -------------------------------------------------------
    Irrep   Nso     Nmo     Nalpha   Nbeta   Ndocc  Nsocc
   -------------------------------------------------------
     A         54      54       0       0       0       0
   -------------------------------------------------------
    Total      54      54      32      32      32       0
   -------------------------------------------------------

  ==> Integral Setup <==

  DFHelper Memory: AOs need 0.024 GiB; user supplied 34.425 GiB. Using in-core AOs.

  ==> MemDFJK: Density-Fitted J/K Matrices <==

    J tasked:                   Yes
    K tasked:                    No
    wK tasked:                   No
    OpenMP threads:               1
    Memory [MiB]:             35250
    Algorithm:                 Core
    Schwarz Cutoff:           1E-12
    Mask sparsity (%):       1.8519
    Fitting Condition:        1E-10

   => Auxiliary Basis Set <=

  Basis Set: (STO-3G AUX)
    Blend: DEF2-SVP-JKFIT
    Number of shells: 279
    Number of basis function: 841
    Number of Cartesian functions: 989
    Spherical Harmonics?: true
    Max angular momentum: 4

  Cached 100.0% of DFT collocation blocks in 0.500 [GiB].

  Minimum eigenvalue in the overlap matrix is 1.8830137239E-01.
  Using Symmetric Orthogonalization.

  SCF Guess: Superposition of Atomic Densities via on-the-fly atomic UHF.

  ==> Iterations <==

                           Total Energy        Delta E     RMS |[F,P]|

   @DF-RKS iter SAD:  -373.14487581179583   -3.73145e+02   0.00000e+00 
   @DF-RKS iter   1:  -376.48742594400028   -3.34255e+00   5.06389e-03 DIIS
   @DF-RKS iter   2:  -376.34638038507467    1.41046e-01   9.85428e-03 DIIS
   @DF-RKS iter   3:  -376.53611104157665   -1.89731e-01   1.68754e-03 DIIS
   @DF-RKS iter   4:  -376.54108518096132   -4.97414e-03   6.86093e-04 DIIS
   @DF-RKS iter   5:  -376.54210522030280   -1.02004e-03   1.56553e-04 DIIS
   @DF-RKS iter   6:  -376.54215288248713   -4.76622e-05   4.33764e-05 DIIS
   @DF-RKS iter   7:  -376.54215623533105   -3.35284e-06   1.21650e-05 DIIS
   @DF-RKS iter   8:  -376.54215649997752   -2.64646e-07   4.53704e-06 DIIS
   @DF-RKS iter   9:  -376.54215654275151   -4.27740e-08   9.66267e-07 DIIS
   @DF-RKS iter  10:  -376.54215654366908   -9.17566e-10   6.77714e-07 DIIS
   @DF-RKS iter  11:  -376.54215654466509   -9.96010e-10   7.12179e-08 DIIS
   @DF-RKS iter  12:  -376.54215654467214   -7.04858e-12   4.21402e-08 DIIS
   @DF-RKS iter  13:  -376.54215654467555   -3.41061e-12   6.83731e-09 DIIS
  Energy and wave function converged.


  ==> Post-Iterations <==

    Orbital Energies [Eh]
    ---------------------

    Doubly Occupied:                                                      

       1A    -14.122494     2A    -14.122405     3A    -10.092004  
       4A     -9.951262     5A     -9.925105     6A     -9.925035  
       7A     -9.913732     8A     -9.910926     9A     -9.910716  
      10A     -1.042086    11A     -0.963129    12A     -0.880526  
      13A     -0.804912    14A     -0.780803    15A     -0.736882  
      16A     -0.677845    17A     -0.666696    18A     -0.635121  
      19A     -0.632084    20A     -0.593970    21A     -0.570245  
      22A     -0.535717    23A     -0.510604    24A     -0.488655  
      25A     -0.485953    26A     -0.480116    27A     -0.417414  
      28A     -0.417232    29A     -0.410004    30A     -0.363123  
      31A     -0.323914    32A     -0.318636  

    Virtual:                                                              

      33A     -0.187158    34A     -0.105553    35A     -0.092684  
      36A      0.012192    37A      0.025363    38A      0.049507  
      39A      0.060708    40A      0.111826    41A      0.122921  
      42A      0.157913    43A      0.187356    44A      0.187820  
      45A      0.217929    46A      0.230224    47A      0.258521  
      48A      0.276100    49A      0.346840    50A      0.350296  
      51A      0.356941    52A      0.372621    53A      0.492205  
      54A      0.534484  

    Final Occupation by Irrep:
              A 
    DOCC [    32 ]

  @DF-RKS Final Energy:  -376.54215654467555

   => Energetics <=

    Nuclear Repulsion Energy =            406.3987692055987395
    One-Electron Energy =               -1303.6558634438831632
    Two-Electron Energy =                 575.0086682907501654
    DFT Exchange-Correlation Energy =     -54.2937305971412130
    Empirical Dispersion Energy =           0.0000000000000000
    VV10 Nonlocal Energy =                  0.0000000000000000
    Total Energy =                       -376.5421565446755494

Computation Completed


Properties will be evaluated at   0.000000,   0.000000,   0.000000 [a0]

Properties computed using the SCF density matrix

  Nuclear Dipole Moment: [e a0]
     X:     1.7696      Y:     0.0013      Z:     0.0103

  Electronic Dipole Moment: [e a0]
     X:     0.7676      Y:    -0.0055      Z:    -0.0045

  Dipole Moment: [e a0]
     X:     2.5372      Y:    -0.0042      Z:     0.0057     Total:     2.5372

  Dipole Moment: [D]
     X:     6.4488      Y:    -0.0106      Z:     0.0146     Total:     6.4488


*** tstop() called on aaojha at Fri May 14 09:34:29 2021
Module time:
	user time   =       7.26 seconds =       0.12 minutes
	system time =       0.24 seconds =       0.00 minutes
	total time  =          8 seconds =       0.13 minutes
Total time:
	user time   =       7.26 seconds =       0.12 minutes
	system time =       0.24 seconds =       0.00 minutes
	total time  =          8 seconds =       0.13 minutes

*** tstart() called on aaojha
*** at Fri May 14 09:34:29 2021


         ------------------------------------------------------------
                                   SCF GRAD                          
                          Rob Parrish, Justin Turney,                
                       Andy Simmonett, and Alex Sokolov              
         ------------------------------------------------------------

  ==> Geometry <==

    Molecular point group: c1
    Full point group: C1

    Geometry (in Angstrom), charge = 1, multiplicity = 1:

       Center              X                  Y                   Z               Mass       
    ------------   -----------------  -----------------  -----------------  -----------------
         C            0.185161425217    -0.001602963800    -0.004273259360    12.000000000000
         C           -0.535377674783    -1.217832663800     0.255585740640    12.000000000000
         C           -1.952801974783    -1.205339463800     0.261088540640    12.000000000000
         C           -2.661647374783     0.005006936200     0.001298240640    12.000000000000
         C           -1.948822174783     1.212700536200    -0.259984559360    12.000000000000
         C           -0.531368474783     1.218446436200    -0.257503559360    12.000000000000
         C            1.692138625217    -0.003603363800     0.001352840640    12.000000000000
         N            2.396407825217    -1.136896663800    -0.360186459360    14.003074004430
         N            2.396486725217     1.130135936200     0.361484940640    14.003074004430
         H            0.006206525217    -2.154687263800     0.490869640640     1.007825032230
         H           -2.508454274783    -2.139091963800     0.475060440640     1.007825032230
         H           -3.770249074783     0.007223836200     0.002845140640     1.007825032230
         H           -2.501032074783     2.149160636200    -0.471086159360     1.007825032230
         H            0.013502425217     2.153195936200    -0.493417359360     1.007825032230
         H            3.447421625217    -1.181434363800    -0.329081559360     1.007825032230
         H            1.883816225217    -1.971020963800    -0.740876659360     1.007825032230
         H            3.447703325217     1.173553736200     0.335363640640     1.007825032230
         H            1.883552825217     1.964455336200     0.741286540640     1.007825032230

  Nuclear repulsion =  406.398769205598740

  ==> Basis Set <==

  Basis Set: STO-3G
    Blend: STO-3G
    Number of shells: 36
    Number of basis function: 54
    Number of Cartesian functions: 54
    Spherical Harmonics?: true
    Max angular momentum: 1

  ==> DFJKGrad: Density-Fitted SCF Gradients <==

    Gradient:                    1
    J tasked:                  Yes
    K tasked:                   No
    wK tasked:                  No
    OpenMP threads:              1
    Integrals threads:           1
    Memory [MiB]:            35762
    Schwarz Cutoff:          0E+00
    Fitting Condition:       1E-10

   => Auxiliary Basis Set <=

  Basis Set: (STO-3G AUX)
    Blend: DEF2-SVP-JKFIT
    Number of shells: 279
    Number of basis function: 841
    Number of Cartesian functions: 989
    Spherical Harmonics?: true
    Max angular momentum: 4

  ==> DFT Potential <==

   => Composite Functional: BLYP <= 

    BLYP GGA Exchange-Correlation Functional

    P.J. Stephens et. al., J. Phys. Chem., 98, 11623-11627, 1994
    B. Miehlich et. al., Chem. Phys. Lett., 157(3), 200-206 1989


    Deriv               =              1
    GGA                 =           TRUE
    Meta                =          FALSE

    Exchange Hybrid     =          FALSE
    MP2 Hybrid          =          FALSE

   => Exchange Functionals <=

    1.0000     XC_GGA_X_B88

   => Correlation Functionals <=

    1.0000     XC_GGA_C_LYP

   => Molecular Quadrature <=

    Radial Scheme          =       TREUTLER
    Pruning Scheme         =           FLAT
    Nuclear Scheme         =       TREUTLER

    BS radius alpha        =              1
    Pruning alpha          =              1
    Radial Points          =             75
    Spherical Points       =            302
    Total Points           =         395278
    Total Blocks           =           2961
    Max Points             =            256
    Max Functions          =             51


  -Total Gradient:
     Atom            X                  Y                   Z
    ------   -----------------  -----------------  -----------------
       1        0.000044774302    -0.000066681158    -0.000866185816
       2        0.000017366589    -0.000180963369     0.000475215428
       3        0.000294279396     0.000437710982    -0.000122274543
       4       -0.000466064388     0.000000734395     0.000015710671
       5        0.000163326308    -0.000212150392     0.000039363235
       6       -0.000117040474     0.000093829444     0.000081356025
       7        0.000330570869    -0.000197890760     0.000748432711
       8       -0.000114610561    -0.000049932790    -0.000377250096
       9       -0.000104423978     0.000079103556     0.000058237321
      10        0.000017674409    -0.000028624064     0.000000499946
      11        0.000010217979     0.000042221056    -0.000007996201
      12       -0.000037984767     0.000018656407    -0.000006161629
      13       -0.000019599239    -0.000031624684     0.000013478745
      14       -0.000023655858    -0.000000469942    -0.000027010375
      15       -0.000004073474     0.000236925049     0.000054715602
      16        0.000009241941     0.000002023799    -0.000019300034
      17        0.000001292044    -0.000144657788    -0.000063805586
      18        0.000014046043     0.000002639432     0.000002568699


*** tstop() called on aaojha at Fri May 14 09:34:31 2021
Module time:
	user time   =       2.08 seconds =       0.03 minutes
	system time =       0.01 seconds =       0.00 minutes
	total time  =          2 seconds =       0.03 minutes
Total time:
	user time   =       9.34 seconds =       0.16 minutes
	system time =       0.25 seconds =       0.00 minutes
	total time  =         10 seconds =       0.17 minutes

    Psi4 stopped on: Friday, 14 May 2021 09:34AM
    Psi4 wall time for execution: 0:00:09.64

*** Psi4 exiting successfully. Buy a developer a beer!
