
Host: aaojha

Timers On : Fri May 14 10:01:27 2021
Timers Off: Fri May 14 10:01:36 2021

Wall Time:        9.32 seconds

                                                       Time (seconds)
Module                                       User      System        Wall        Calls
V: Grid                             :      1.183u      0.033s      0.732w      1 calls
DFH: sparsity prep                  :      0.017u      0.000s      0.012w      1 calls
DFH: initialize()                   :      0.617u      0.033s      0.387w      1 calls
DFH: AO Construction                :      0.267u      0.000s      0.156w      1 calls
DFH: AO-Met. Contraction            :      0.067u      0.017s      0.046w      1 calls
HF: Form core H                     :      0.000u      0.000s      0.002w      1 calls
HF: Form S/X                        :      0.000u      0.000s      0.000w      1 calls
HF: Guess                           :      0.267u      0.000s      0.153w      1 calls
SAD Guess                           :      0.250u      0.000s      0.146w      1 calls
HF: Form G                          :      7.950u      0.183s      4.895w     14 calls
RV: Form V                          :      7.933u      0.183s      4.875w     14 calls
Properties                          :      2.250u      0.067s      1.478w  44400 calls
Functional                          :      4.250u      0.050s      2.563w  44400 calls
V_xc                                :      2.100u      0.050s      1.293w  41440 calls
JK: D                               :      0.000u      0.000s      0.000w     14 calls
JK: USO2AO                          :      0.000u      0.000s      0.000w     14 calls
JK: JK                              :      0.017u      0.000s      0.019w     14 calls
DFH: compute_JK()                   :      0.017u      0.000s      0.019w     14 calls
DFH: Grabbing AOs                   :      0.000u      0.000s      0.000w     14 calls
DFH: compute_J                      :      0.017u      0.000s      0.019w     14 calls
JK: AO2USO                          :      0.000u      0.000s      0.000w     14 calls
HF: Form F                          :      0.000u      0.000s      0.000w     14 calls
HF: Form D                          :      0.000u      0.000s      0.000w     14 calls
HF: DIIS                            :      0.033u      0.000s      0.006w     13 calls
DIISManager::add_entry              :      0.000u      0.000s      0.001w     13 calls
DIISManager::extrapolate            :      0.000u      0.000s      0.001w     13 calls
bMatrix setup                       :      0.000u      0.000s      0.001w     13 calls
bMatrix pseudoinverse               :      0.000u      0.000s      0.000w     13 calls
New vector                          :      0.000u      0.000s      0.000w     13 calls
HF: Form C                          :      0.000u      0.000s      0.003w     13 calls
Grad: V T Perturb                   :      0.083u      0.000s      0.051w      1 calls
Grad: S                             :      0.000u      0.000s      0.001w      1 calls
Grad: JK                            :      1.867u      0.000s      1.145w      1 calls
JKGrad: Amn                         :      0.317u      0.000s      0.184w      1 calls
JKGrad: Awmn                        :      0.000u      0.000s      0.000w      1 calls
JKGrad: AB                          :      0.267u      0.000s      0.168w      1 calls
JKGrad: UV                          :      0.000u      0.000s      0.000w      1 calls
JKGrad: ABx                         :      0.133u      0.000s      0.074w      1 calls
JKGrad: Amnx                        :      1.133u      0.000s      0.687w      1 calls
Grad: XC                            :      1.367u      0.000s      0.820w      1 calls
V_xc gradient                       :      0.550u      0.000s      0.298w   2960 calls

--------------------------------------------------------------------------------------
V: Grid                             :      1.183u      0.033s      0.732w      1 calls
DFH: sparsity prep                  :      0.017u      0.000s      0.012w      1 calls
DFH: initialize()                   :      0.617u      0.033s      0.387w      1 calls
| DFH: AO Construction              :      0.267u      0.000s      0.156w      1 calls
| DFH: AO-Met. Contraction          :      0.067u      0.017s      0.046w      1 calls
HF: Form core H                     :      0.000u      0.000s      0.002w      1 calls
HF: Form S/X                        :      0.000u      0.000s      0.000w      1 calls
HF: Guess                           :      0.267u      0.000s      0.153w      1 calls
| SAD Guess                         :      0.250u      0.000s      0.146w      1 calls
HF: Form G                          :      7.950u      0.183s      4.895w     14 calls
| RV: Form V                        :      7.933u      0.183s      4.875w     14 calls
| | Properties                      :      1.700u      0.067s      1.131w  41440 calls
| | Functional                      :      4.000u      0.050s      2.392w  41440 calls
| | V_xc                            :      2.100u      0.050s      1.293w  41440 calls
| JK: D                             :      0.000u      0.000s      0.000w     14 calls
| JK: USO2AO                        :      0.000u      0.000s      0.000w     14 calls
| JK: JK                            :      0.017u      0.000s      0.019w     14 calls
| | DFH: compute_JK()               :      0.017u      0.000s      0.019w     14 calls
| | | DFH: Grabbing AOs             :      0.000u      0.000s      0.000w     14 calls
| | | DFH: compute_J                :      0.017u      0.000s      0.019w     14 calls
| JK: AO2USO                        :      0.000u      0.000s      0.000w     14 calls
HF: Form F                          :      0.000u      0.000s      0.000w     14 calls
HF: Form D                          :      0.000u      0.000s      0.000w     14 calls
HF: DIIS                            :      0.033u      0.000s      0.006w     13 calls
| DIISManager::add_entry            :      0.000u      0.000s      0.001w     13 calls
| DIISManager::extrapolate          :      0.000u      0.000s      0.001w     13 calls
| | bMatrix setup                   :      0.000u      0.000s      0.001w     13 calls
| | bMatrix pseudoinverse           :      0.000u      0.000s      0.000w     13 calls
| | New vector                      :      0.000u      0.000s      0.000w     13 calls
HF: Form C                          :      0.000u      0.000s      0.003w     13 calls
Grad: V T Perturb                   :      0.083u      0.000s      0.051w      1 calls
Grad: S                             :      0.000u      0.000s      0.001w      1 calls
Grad: JK                            :      1.867u      0.000s      1.145w      1 calls
| JKGrad: Amn                       :      0.317u      0.000s      0.184w      1 calls
| JKGrad: Awmn                      :      0.000u      0.000s      0.000w      1 calls
| JKGrad: AB                        :      0.267u      0.000s      0.168w      1 calls
| JKGrad: UV                        :      0.000u      0.000s      0.000w      1 calls
| JKGrad: ABx                       :      0.133u      0.000s      0.074w      1 calls
| JKGrad: Amnx                      :      1.133u      0.000s      0.687w      1 calls
Grad: XC                            :      1.367u      0.000s      0.820w      1 calls
| Properties                        :      0.550u      0.000s      0.347w   2960 calls
| Functional                        :      0.250u      0.000s      0.171w   2960 calls
| V_xc gradient                     :      0.550u      0.000s      0.298w   2960 calls

**************************************************************************************

Host: aaojha

Timers On : Fri May 14 10:01:36 2021
Timers Off: Fri May 14 10:01:46 2021

Wall Time:        9.67 seconds

                                                       Time (seconds)
Module                                       User      System        Wall        Calls
V: Grid                             :      1.250u      0.000s      0.757w      1 calls
DFH: sparsity prep                  :      0.017u      0.000s      0.012w      1 calls
DFH: initialize()                   :      0.633u      0.033s      0.387w      1 calls
DFH: AO Construction                :      0.250u      0.000s      0.157w      1 calls
DFH: AO-Met. Contraction            :      0.083u      0.017s      0.046w      1 calls
HF: Form core H                     :      0.000u      0.000s      0.002w      1 calls
HF: Form S/X                        :      0.000u      0.000s      0.000w      1 calls
HF: Guess                           :      0.267u      0.000s      0.153w      1 calls
SAD Guess                           :      0.250u      0.000s      0.146w      1 calls
HF: Form G                          :      8.550u      0.133s      5.233w     15 calls
RV: Form V                          :      8.533u      0.133s      5.211w     15 calls
Properties                          :      2.800u      0.017s      1.550w  47568 calls
Functional                          :      4.533u      0.083s      2.736w  47568 calls
V_xc                                :      1.950u      0.050s      1.378w  44595 calls
JK: D                               :      0.000u      0.000s      0.000w     15 calls
JK: USO2AO                          :      0.000u      0.000s      0.000w     15 calls
JK: JK                              :      0.000u      0.000s      0.021w     15 calls
DFH: compute_JK()                   :      0.000u      0.000s      0.021w     15 calls
DFH: Grabbing AOs                   :      0.000u      0.000s      0.000w     15 calls
DFH: compute_J                      :      0.000u      0.000s      0.020w     15 calls
JK: AO2USO                          :      0.000u      0.000s      0.000w     15 calls
HF: Form F                          :      0.000u      0.000s      0.000w     15 calls
HF: Form D                          :      0.000u      0.000s      0.000w     15 calls
HF: DIIS                            :      0.017u      0.000s      0.006w     14 calls
DIISManager::add_entry              :      0.017u      0.000s      0.001w     14 calls
DIISManager::extrapolate            :      0.000u      0.000s      0.002w     14 calls
bMatrix setup                       :      0.000u      0.000s      0.001w     14 calls
bMatrix pseudoinverse               :      0.000u      0.000s      0.000w     14 calls
New vector                          :      0.000u      0.000s      0.000w     14 calls
HF: Form C                          :      0.017u      0.000s      0.003w     14 calls
Grad: V T Perturb                   :      0.083u      0.000s      0.051w      1 calls
Grad: S                             :      0.000u      0.000s      0.001w      1 calls
Grad: JK                            :      1.850u      0.000s      1.125w      1 calls
JKGrad: Amn                         :      0.283u      0.000s      0.170w      1 calls
JKGrad: Awmn                        :      0.000u      0.000s      0.000w      1 calls
JKGrad: AB                          :      0.283u      0.000s      0.164w      1 calls
JKGrad: UV                          :      0.000u      0.000s      0.000w      1 calls
JKGrad: ABx                         :      0.117u      0.000s      0.074w      1 calls
JKGrad: Amnx                        :      1.150u      0.000s      0.686w      1 calls
Grad: XC                            :      1.333u      0.017s      0.811w      1 calls
V_xc gradient                       :      0.467u      0.000s      0.290w   2973 calls

--------------------------------------------------------------------------------------
V: Grid                             :      1.250u      0.000s      0.757w      1 calls
DFH: sparsity prep                  :      0.017u      0.000s      0.012w      1 calls
DFH: initialize()                   :      0.633u      0.033s      0.387w      1 calls
| DFH: AO Construction              :      0.250u      0.000s      0.157w      1 calls
| DFH: AO-Met. Contraction          :      0.083u      0.017s      0.046w      1 calls
HF: Form core H                     :      0.000u      0.000s      0.002w      1 calls
HF: Form S/X                        :      0.000u      0.000s      0.000w      1 calls
HF: Guess                           :      0.267u      0.000s      0.153w      1 calls
| SAD Guess                         :      0.250u      0.000s      0.146w      1 calls
HF: Form G                          :      8.550u      0.133s      5.233w     15 calls
| RV: Form V                        :      8.533u      0.133s      5.211w     15 calls
| | Properties                      :      2.217u      0.000s      1.206w  44595 calls
| | Functional                      :      4.267u      0.083s      2.564w  44595 calls
| | V_xc                            :      1.950u      0.050s      1.378w  44595 calls
| JK: D                             :      0.000u      0.000s      0.000w     15 calls
| JK: USO2AO                        :      0.000u      0.000s      0.000w     15 calls
| JK: JK                            :      0.000u      0.000s      0.021w     15 calls
| | DFH: compute_JK()               :      0.000u      0.000s      0.021w     15 calls
| | | DFH: Grabbing AOs             :      0.000u      0.000s      0.000w     15 calls
| | | DFH: compute_J                :      0.000u      0.000s      0.020w     15 calls
| JK: AO2USO                        :      0.000u      0.000s      0.000w     15 calls
HF: Form F                          :      0.000u      0.000s      0.000w     15 calls
HF: Form D                          :      0.000u      0.000s      0.000w     15 calls
HF: DIIS                            :      0.017u      0.000s      0.006w     14 calls
| DIISManager::add_entry            :      0.017u      0.000s      0.001w     14 calls
| DIISManager::extrapolate          :      0.000u      0.000s      0.002w     14 calls
| | bMatrix setup                   :      0.000u      0.000s      0.001w     14 calls
| | bMatrix pseudoinverse           :      0.000u      0.000s      0.000w     14 calls
| | New vector                      :      0.000u      0.000s      0.000w     14 calls
HF: Form C                          :      0.017u      0.000s      0.003w     14 calls
Grad: V T Perturb                   :      0.083u      0.000s      0.051w      1 calls
Grad: S                             :      0.000u      0.000s      0.001w      1 calls
Grad: JK                            :      1.850u      0.000s      1.125w      1 calls
| JKGrad: Amn                       :      0.283u      0.000s      0.170w      1 calls
| JKGrad: Awmn                      :      0.000u      0.000s      0.000w      1 calls
| JKGrad: AB                        :      0.283u      0.000s      0.164w      1 calls
| JKGrad: UV                        :      0.000u      0.000s      0.000w      1 calls
| JKGrad: ABx                       :      0.117u      0.000s      0.074w      1 calls
| JKGrad: Amnx                      :      1.150u      0.000s      0.686w      1 calls
Grad: XC                            :      1.333u      0.017s      0.811w      1 calls
| Properties                        :      0.583u      0.017s      0.344w   2973 calls
| Functional                        :      0.267u      0.000s      0.172w   2973 calls
| V_xc gradient                     :      0.467u      0.000s      0.290w   2973 calls

**************************************************************************************

Host: aaojha

Timers On : Fri May 14 10:01:46 2021
Timers Off: Fri May 14 10:01:56 2021

Wall Time:        9.62 seconds

                                                       Time (seconds)
Module                                       User      System        Wall        Calls
V: Grid                             :      1.200u      0.017s      0.732w      1 calls
DFH: sparsity prep                  :      0.017u      0.000s      0.012w      1 calls
DFH: initialize()                   :      0.617u      0.033s      0.392w      1 calls
DFH: AO Construction                :      0.267u      0.017s      0.160w      1 calls
DFH: AO-Met. Contraction            :      0.067u      0.000s      0.046w      1 calls
HF: Form core H                     :      0.000u      0.000s      0.002w      1 calls
HF: Form S/X                        :      0.000u      0.000s      0.000w      1 calls
HF: Guess                           :      0.250u      0.017s      0.155w      1 calls
SAD Guess                           :      0.233u      0.017s      0.147w      1 calls
HF: Form G                          :      8.567u      0.133s      5.233w     15 calls
RV: Form V                          :      8.533u      0.133s      5.211w     15 calls
Properties                          :      2.683u      0.033s      1.550w  47536 calls
Functional                          :      4.600u      0.033s      2.745w  47536 calls
V_xc                                :      2.083u      0.050s      1.375w  44565 calls
JK: D                               :      0.000u      0.000s      0.000w     15 calls
JK: USO2AO                          :      0.000u      0.000s      0.000w     15 calls
JK: JK                              :      0.033u      0.000s      0.021w     15 calls
DFH: compute_JK()                   :      0.033u      0.000s      0.021w     15 calls
DFH: Grabbing AOs                   :      0.000u      0.000s      0.000w     15 calls
DFH: compute_J                      :      0.033u      0.000s      0.020w     15 calls
JK: AO2USO                          :      0.000u      0.000s      0.000w     15 calls
HF: Form F                          :      0.000u      0.000s      0.000w     15 calls
HF: Form D                          :      0.000u      0.000s      0.000w     15 calls
HF: DIIS                            :      0.000u      0.000s      0.006w     14 calls
DIISManager::add_entry              :      0.000u      0.000s      0.001w     14 calls
DIISManager::extrapolate            :      0.000u      0.000s      0.002w     14 calls
bMatrix setup                       :      0.000u      0.000s      0.001w     14 calls
bMatrix pseudoinverse               :      0.000u      0.000s      0.000w     14 calls
New vector                          :      0.000u      0.000s      0.000w     14 calls
HF: Form C                          :      0.033u      0.000s      0.003w     14 calls
Grad: V T Perturb                   :      0.083u      0.000s      0.051w      1 calls
Grad: S                             :      0.000u      0.000s      0.001w      1 calls
Grad: JK                            :      1.850u      0.000s      1.107w      1 calls
JKGrad: Amn                         :      0.283u      0.000s      0.171w      1 calls
JKGrad: Awmn                        :      0.000u      0.000s      0.000w      1 calls
JKGrad: AB                          :      0.267u      0.000s      0.165w      1 calls
JKGrad: UV                          :      0.000u      0.000s      0.000w      1 calls
JKGrad: ABx                         :      0.133u      0.000s      0.073w      1 calls
JKGrad: Amnx                        :      1.133u      0.000s      0.683w      1 calls
Grad: XC                            :      1.367u      0.000s      0.817w      1 calls
V_xc gradient                       :      0.450u      0.000s      0.292w   2971 calls

--------------------------------------------------------------------------------------
V: Grid                             :      1.200u      0.017s      0.732w      1 calls
DFH: sparsity prep                  :      0.017u      0.000s      0.012w      1 calls
DFH: initialize()                   :      0.617u      0.033s      0.392w      1 calls
| DFH: AO Construction              :      0.267u      0.017s      0.160w      1 calls
| DFH: AO-Met. Contraction          :      0.067u      0.000s      0.046w      1 calls
HF: Form core H                     :      0.000u      0.000s      0.002w      1 calls
HF: Form S/X                        :      0.000u      0.000s      0.000w      1 calls
HF: Guess                           :      0.250u      0.017s      0.155w      1 calls
| SAD Guess                         :      0.233u      0.017s      0.147w      1 calls
HF: Form G                          :      8.567u      0.133s      5.233w     15 calls
| RV: Form V                        :      8.533u      0.133s      5.211w     15 calls
| | Properties                      :      2.050u      0.033s      1.202w  44565 calls
| | Functional                      :      4.317u      0.033s      2.573w  44565 calls
| | V_xc                            :      2.083u      0.050s      1.375w  44565 calls
| JK: D                             :      0.000u      0.000s      0.000w     15 calls
| JK: USO2AO                        :      0.000u      0.000s      0.000w     15 calls
| JK: JK                            :      0.033u      0.000s      0.021w     15 calls
| | DFH: compute_JK()               :      0.033u      0.000s      0.021w     15 calls
| | | DFH: Grabbing AOs             :      0.000u      0.000s      0.000w     15 calls
| | | DFH: compute_J                :      0.033u      0.000s      0.020w     15 calls
| JK: AO2USO                        :      0.000u      0.000s      0.000w     15 calls
HF: Form F                          :      0.000u      0.000s      0.000w     15 calls
HF: Form D                          :      0.000u      0.000s      0.000w     15 calls
HF: DIIS                            :      0.000u      0.000s      0.006w     14 calls
| DIISManager::add_entry            :      0.000u      0.000s      0.001w     14 calls
| DIISManager::extrapolate          :      0.000u      0.000s      0.002w     14 calls
| | bMatrix setup                   :      0.000u      0.000s      0.001w     14 calls
| | bMatrix pseudoinverse           :      0.000u      0.000s      0.000w     14 calls
| | New vector                      :      0.000u      0.000s      0.000w     14 calls
HF: Form C                          :      0.033u      0.000s      0.003w     14 calls
Grad: V T Perturb                   :      0.083u      0.000s      0.051w      1 calls
Grad: S                             :      0.000u      0.000s      0.001w      1 calls
Grad: JK                            :      1.850u      0.000s      1.107w      1 calls
| JKGrad: Amn                       :      0.283u      0.000s      0.171w      1 calls
| JKGrad: Awmn                      :      0.000u      0.000s      0.000w      1 calls
| JKGrad: AB                        :      0.267u      0.000s      0.165w      1 calls
| JKGrad: UV                        :      0.000u      0.000s      0.000w      1 calls
| JKGrad: ABx                       :      0.133u      0.000s      0.073w      1 calls
| JKGrad: Amnx                      :      1.133u      0.000s      0.683w      1 calls
Grad: XC                            :      1.367u      0.000s      0.817w      1 calls
| Properties                        :      0.633u      0.000s      0.348w   2971 calls
| Functional                        :      0.283u      0.000s      0.172w   2971 calls
| V_xc gradient                     :      0.450u      0.000s      0.292w   2971 calls

**************************************************************************************

Host: aaojha

Timers On : Fri May 14 10:01:56 2021
Timers Off: Fri May 14 10:02:05 2021

Wall Time:        9.24 seconds

                                                       Time (seconds)
Module                                       User      System        Wall        Calls
V: Grid                             :      1.217u      0.000s      0.729w      1 calls
DFH: sparsity prep                  :      0.033u      0.000s      0.013w      1 calls
DFH: initialize()                   :      0.617u      0.033s      0.384w      1 calls
DFH: AO Construction                :      0.250u      0.017s      0.155w      1 calls
DFH: AO-Met. Contraction            :      0.083u      0.000s      0.045w      1 calls
HF: Form core H                     :      0.017u      0.000s      0.002w      1 calls
HF: Form S/X                        :      0.000u      0.000s      0.000w      1 calls
HF: Guess                           :      0.250u      0.000s      0.153w      1 calls
SAD Guess                           :      0.250u      0.000s      0.146w      1 calls
HF: Form G                          :      8.067u      0.083s      4.871w     14 calls
RV: Form V                          :      8.067u      0.083s      4.851w     14 calls
Properties                          :      2.433u      0.033s      1.467w  44670 calls
Functional                          :      4.333u      0.017s      2.555w  44670 calls
V_xc                                :      2.050u      0.017s      1.286w  41692 calls
JK: D                               :      0.000u      0.000s      0.000w     14 calls
JK: USO2AO                          :      0.000u      0.000s      0.000w     14 calls
JK: JK                              :      0.000u      0.000s      0.019w     14 calls
DFH: compute_JK()                   :      0.000u      0.000s      0.019w     14 calls
DFH: Grabbing AOs                   :      0.000u      0.000s      0.000w     14 calls
DFH: compute_J                      :      0.000u      0.000s      0.019w     14 calls
JK: AO2USO                          :      0.000u      0.000s      0.000w     14 calls
HF: Form F                          :      0.000u      0.000s      0.000w     14 calls
HF: Form D                          :      0.000u      0.000s      0.000w     14 calls
HF: DIIS                            :      0.000u      0.000s      0.015w     13 calls
DIISManager::add_entry              :      0.000u      0.000s      0.001w     13 calls
DIISManager::extrapolate            :      0.000u      0.000s      0.011w     13 calls
bMatrix setup                       :      0.000u      0.000s      0.010w     13 calls
bMatrix pseudoinverse               :      0.000u      0.000s      0.000w     13 calls
New vector                          :      0.000u      0.000s      0.000w     13 calls
HF: Form C                          :      0.000u      0.000s      0.003w     13 calls
Grad: V T Perturb                   :      0.083u      0.000s      0.050w      1 calls
Grad: S                             :      0.000u      0.000s      0.001w      1 calls
Grad: JK                            :      1.833u      0.000s      1.102w      1 calls
JKGrad: Amn                         :      0.283u      0.000s      0.170w      1 calls
JKGrad: Awmn                        :      0.000u      0.000s      0.000w      1 calls
JKGrad: AB                          :      0.267u      0.000s      0.162w      1 calls
JKGrad: UV                          :      0.000u      0.000s      0.000w      1 calls
JKGrad: ABx                         :      0.133u      0.000s      0.073w      1 calls
JKGrad: Amnx                        :      1.133u      0.000s      0.684w      1 calls
Grad: XC                            :      1.350u      0.017s      0.811w      1 calls
V_xc gradient                       :      0.517u      0.017s      0.292w   2978 calls

--------------------------------------------------------------------------------------
V: Grid                             :      1.217u      0.000s      0.729w      1 calls
DFH: sparsity prep                  :      0.033u      0.000s      0.013w      1 calls
DFH: initialize()                   :      0.617u      0.033s      0.384w      1 calls
| DFH: AO Construction              :      0.250u      0.017s      0.155w      1 calls
| DFH: AO-Met. Contraction          :      0.083u      0.000s      0.045w      1 calls
HF: Form core H                     :      0.017u      0.000s      0.002w      1 calls
HF: Form S/X                        :      0.000u      0.000s      0.000w      1 calls
HF: Guess                           :      0.250u      0.000s      0.153w      1 calls
| SAD Guess                         :      0.250u      0.000s      0.146w      1 calls
HF: Form G                          :      8.067u      0.083s      4.871w     14 calls
| RV: Form V                        :      8.067u      0.083s      4.851w     14 calls
| | Properties                      :      1.867u      0.033s      1.124w  41692 calls
| | Functional                      :      4.067u      0.017s      2.383w  41692 calls
| | V_xc                            :      2.050u      0.017s      1.286w  41692 calls
| JK: D                             :      0.000u      0.000s      0.000w     14 calls
| JK: USO2AO                        :      0.000u      0.000s      0.000w     14 calls
| JK: JK                            :      0.000u      0.000s      0.019w     14 calls
| | DFH: compute_JK()               :      0.000u      0.000s      0.019w     14 calls
| | | DFH: Grabbing AOs             :      0.000u      0.000s      0.000w     14 calls
| | | DFH: compute_J                :      0.000u      0.000s      0.019w     14 calls
| JK: AO2USO                        :      0.000u      0.000s      0.000w     14 calls
HF: Form F                          :      0.000u      0.000s      0.000w     14 calls
HF: Form D                          :      0.000u      0.000s      0.000w     14 calls
HF: DIIS                            :      0.000u      0.000s      0.015w     13 calls
| DIISManager::add_entry            :      0.000u      0.000s      0.001w     13 calls
| DIISManager::extrapolate          :      0.000u      0.000s      0.011w     13 calls
| | bMatrix setup                   :      0.000u      0.000s      0.010w     13 calls
| | bMatrix pseudoinverse           :      0.000u      0.000s      0.000w     13 calls
| | New vector                      :      0.000u      0.000s      0.000w     13 calls
HF: Form C                          :      0.000u      0.000s      0.003w     13 calls
Grad: V T Perturb                   :      0.083u      0.000s      0.050w      1 calls
Grad: S                             :      0.000u      0.000s      0.001w      1 calls
Grad: JK                            :      1.833u      0.000s      1.102w      1 calls
| JKGrad: Amn                       :      0.283u      0.000s      0.170w      1 calls
| JKGrad: Awmn                      :      0.000u      0.000s      0.000w      1 calls
| JKGrad: AB                        :      0.267u      0.000s      0.162w      1 calls
| JKGrad: UV                        :      0.000u      0.000s      0.000w      1 calls
| JKGrad: ABx                       :      0.133u      0.000s      0.073w      1 calls
| JKGrad: Amnx                      :      1.133u      0.000s      0.684w      1 calls
Grad: XC                            :      1.350u      0.017s      0.811w      1 calls
| Properties                        :      0.567u      0.000s      0.343w   2978 calls
| Functional                        :      0.267u      0.000s      0.172w   2978 calls
| V_xc gradient                     :      0.517u      0.017s      0.292w   2978 calls

**************************************************************************************

Host: aaojha

Timers On : Fri May 14 10:02:06 2021
Timers Off: Fri May 14 10:02:15 2021

Wall Time:        9.64 seconds

                                                       Time (seconds)
Module                                       User      System        Wall        Calls
V: Grid                             :      1.183u      0.017s      0.722w      1 calls
DFH: sparsity prep                  :      0.017u      0.000s      0.012w      1 calls
DFH: initialize()                   :      0.617u      0.017s      0.384w      1 calls
DFH: AO Construction                :      0.250u      0.000s      0.155w      1 calls
DFH: AO-Met. Contraction            :      0.083u      0.000s      0.045w      1 calls
HF: Form core H                     :      0.000u      0.000s      0.002w      1 calls
HF: Form S/X                        :      0.000u      0.000s      0.000w      1 calls
HF: Guess                           :      0.250u      0.017s      0.154w      1 calls
SAD Guess                           :      0.250u      0.000s      0.147w      1 calls
HF: Form G                          :      8.583u      0.083s      5.229w     15 calls
RV: Form V                          :      8.533u      0.083s      5.208w     15 calls
Properties                          :      2.817u      0.017s      1.549w  47584 calls
Functional                          :      4.400u      0.050s      2.737w  47584 calls
V_xc                                :      2.117u      0.017s      1.374w  44610 calls
JK: D                               :      0.000u      0.000s      0.000w     15 calls
JK: USO2AO                          :      0.000u      0.000s      0.000w     15 calls
JK: JK                              :      0.050u      0.000s      0.021w     15 calls
DFH: compute_JK()                   :      0.050u      0.000s      0.021w     15 calls
DFH: Grabbing AOs                   :      0.000u      0.000s      0.000w     15 calls
DFH: compute_J                      :      0.050u      0.000s      0.020w     15 calls
JK: AO2USO                          :      0.000u      0.000s      0.000w     15 calls
HF: Form F                          :      0.000u      0.000s      0.000w     15 calls
HF: Form D                          :      0.000u      0.000s      0.000w     15 calls
HF: DIIS                            :      0.017u      0.000s      0.006w     14 calls
DIISManager::add_entry              :      0.000u      0.000s      0.001w     14 calls
DIISManager::extrapolate            :      0.017u      0.000s      0.002w     14 calls
bMatrix setup                       :      0.017u      0.000s      0.001w     14 calls
bMatrix pseudoinverse               :      0.000u      0.000s      0.000w     14 calls
New vector                          :      0.000u      0.000s      0.000w     14 calls
HF: Form C                          :      0.017u      0.000s      0.003w     14 calls
Grad: V T Perturb                   :      0.083u      0.000s      0.053w      1 calls
Grad: S                             :      0.000u      0.000s      0.001w      1 calls
Grad: JK                            :      1.833u      0.000s      1.116w      1 calls
JKGrad: Amn                         :      0.283u      0.000s      0.170w      1 calls
JKGrad: Awmn                        :      0.000u      0.000s      0.000w      1 calls
JKGrad: AB                          :      0.267u      0.000s      0.162w      1 calls
JKGrad: UV                          :      0.000u      0.000s      0.000w      1 calls
JKGrad: ABx                         :      0.117u      0.000s      0.073w      1 calls
JKGrad: Amnx                        :      1.133u      0.000s      0.679w      1 calls
Grad: XC                            :      1.350u      0.000s      0.813w      1 calls
V_xc gradient                       :      0.433u      0.000s      0.291w   2974 calls

--------------------------------------------------------------------------------------
V: Grid                             :      1.183u      0.017s      0.722w      1 calls
DFH: sparsity prep                  :      0.017u      0.000s      0.012w      1 calls
DFH: initialize()                   :      0.617u      0.017s      0.384w      1 calls
| DFH: AO Construction              :      0.250u      0.000s      0.155w      1 calls
| DFH: AO-Met. Contraction          :      0.083u      0.000s      0.045w      1 calls
HF: Form core H                     :      0.000u      0.000s      0.002w      1 calls
HF: Form S/X                        :      0.000u      0.000s      0.000w      1 calls
HF: Guess                           :      0.250u      0.017s      0.154w      1 calls
| SAD Guess                         :      0.250u      0.000s      0.147w      1 calls
HF: Form G                          :      8.583u      0.083s      5.229w     15 calls
| RV: Form V                        :      8.533u      0.083s      5.208w     15 calls
| | Properties                      :      2.133u      0.017s      1.204w  44610 calls
| | Functional                      :      4.167u      0.050s      2.565w  44610 calls
| | V_xc                            :      2.117u      0.017s      1.374w  44610 calls
| JK: D                             :      0.000u      0.000s      0.000w     15 calls
| JK: USO2AO                        :      0.000u      0.000s      0.000w     15 calls
| JK: JK                            :      0.050u      0.000s      0.021w     15 calls
| | DFH: compute_JK()               :      0.050u      0.000s      0.021w     15 calls
| | | DFH: Grabbing AOs             :      0.000u      0.000s      0.000w     15 calls
| | | DFH: compute_J                :      0.050u      0.000s      0.020w     15 calls
| JK: AO2USO                        :      0.000u      0.000s      0.000w     15 calls
HF: Form F                          :      0.000u      0.000s      0.000w     15 calls
HF: Form D                          :      0.000u      0.000s      0.000w     15 calls
HF: DIIS                            :      0.017u      0.000s      0.006w     14 calls
| DIISManager::add_entry            :      0.000u      0.000s      0.001w     14 calls
| DIISManager::extrapolate          :      0.017u      0.000s      0.002w     14 calls
| | bMatrix setup                   :      0.017u      0.000s      0.001w     14 calls
| | bMatrix pseudoinverse           :      0.000u      0.000s      0.000w     14 calls
| | New vector                      :      0.000u      0.000s      0.000w     14 calls
HF: Form C                          :      0.017u      0.000s      0.003w     14 calls
Grad: V T Perturb                   :      0.083u      0.000s      0.053w      1 calls
Grad: S                             :      0.000u      0.000s      0.001w      1 calls
Grad: JK                            :      1.833u      0.000s      1.116w      1 calls
| JKGrad: Amn                       :      0.283u      0.000s      0.170w      1 calls
| JKGrad: Awmn                      :      0.000u      0.000s      0.000w      1 calls
| JKGrad: AB                        :      0.267u      0.000s      0.162w      1 calls
| JKGrad: UV                        :      0.000u      0.000s      0.000w      1 calls
| JKGrad: ABx                       :      0.117u      0.000s      0.073w      1 calls
| JKGrad: Amnx                      :      1.133u      0.000s      0.679w      1 calls
Grad: XC                            :      1.350u      0.000s      0.813w      1 calls
| Properties                        :      0.683u      0.000s      0.345w   2974 calls
| Functional                        :      0.233u      0.000s      0.172w   2974 calls
| V_xc gradient                     :      0.433u      0.000s      0.291w   2974 calls

**************************************************************************************

Host: aaojha

Timers On : Fri May 14 10:02:16 2021
Timers Off: Fri May 14 10:02:25 2021

Wall Time:        9.59 seconds

                                                       Time (seconds)
Module                                       User      System        Wall        Calls
V: Grid                             :      1.183u      0.017s      0.730w      1 calls
DFH: sparsity prep                  :      0.017u      0.000s      0.012w      1 calls
DFH: initialize()                   :      0.617u      0.017s      0.385w      1 calls
DFH: AO Construction                :      0.250u      0.000s      0.156w      1 calls
DFH: AO-Met. Contraction            :      0.083u      0.000s      0.047w      1 calls
HF: Form core H                     :      0.000u      0.000s      0.002w      1 calls
HF: Form S/X                        :      0.017u      0.000s      0.000w      1 calls
HF: Guess                           :      0.250u      0.000s      0.153w      1 calls
SAD Guess                           :      0.250u      0.000s      0.147w      1 calls
HF: Form G                          :      8.567u      0.100s      5.200w     15 calls
RV: Form V                          :      8.533u      0.100s      5.178w     15 calls
Properties                          :      2.550u      0.050s      1.549w  47248 calls
Functional                          :      4.267u      0.017s      2.705w  47248 calls
V_xc                                :      2.367u      0.033s      1.379w  44295 calls
JK: D                               :      0.000u      0.000s      0.000w     15 calls
JK: USO2AO                          :      0.000u      0.000s      0.000w     15 calls
JK: JK                              :      0.033u      0.000s      0.021w     15 calls
DFH: compute_JK()                   :      0.033u      0.000s      0.021w     15 calls
DFH: Grabbing AOs                   :      0.000u      0.000s      0.000w     15 calls
DFH: compute_J                      :      0.033u      0.000s      0.020w     15 calls
JK: AO2USO                          :      0.000u      0.000s      0.000w     15 calls
HF: Form F                          :      0.000u      0.000s      0.000w     15 calls
HF: Form D                          :      0.000u      0.000s      0.000w     15 calls
HF: DIIS                            :      0.000u      0.000s      0.006w     14 calls
DIISManager::add_entry              :      0.000u      0.000s      0.001w     14 calls
DIISManager::extrapolate            :      0.000u      0.000s      0.002w     14 calls
bMatrix setup                       :      0.000u      0.000s      0.001w     14 calls
bMatrix pseudoinverse               :      0.000u      0.000s      0.000w     14 calls
New vector                          :      0.000u      0.000s      0.000w     14 calls
HF: Form C                          :      0.000u      0.000s      0.003w     14 calls
Grad: V T Perturb                   :      0.083u      0.000s      0.051w      1 calls
Grad: S                             :      0.000u      0.000s      0.001w      1 calls
Grad: JK                            :      1.833u      0.000s      1.110w      1 calls
JKGrad: Amn                         :      0.283u      0.000s      0.171w      1 calls
JKGrad: Awmn                        :      0.000u      0.000s      0.000w      1 calls
JKGrad: AB                          :      0.283u      0.000s      0.164w      1 calls
JKGrad: UV                          :      0.000u      0.000s      0.000w      1 calls
JKGrad: ABx                         :      0.117u      0.000s      0.073w      1 calls
JKGrad: Amnx                        :      1.133u      0.000s      0.679w      1 calls
Grad: XC                            :      1.350u      0.017s      0.813w      1 calls
V_xc gradient                       :      0.533u      0.017s      0.292w   2953 calls

--------------------------------------------------------------------------------------
V: Grid                             :      1.183u      0.017s      0.730w      1 calls
DFH: sparsity prep                  :      0.017u      0.000s      0.012w      1 calls
DFH: initialize()                   :      0.617u      0.017s      0.385w      1 calls
| DFH: AO Construction              :      0.250u      0.000s      0.156w      1 calls
| DFH: AO-Met. Contraction          :      0.083u      0.000s      0.047w      1 calls
HF: Form core H                     :      0.000u      0.000s      0.002w      1 calls
HF: Form S/X                        :      0.017u      0.000s      0.000w      1 calls
HF: Guess                           :      0.250u      0.000s      0.153w      1 calls
| SAD Guess                         :      0.250u      0.000s      0.147w      1 calls
HF: Form G                          :      8.567u      0.100s      5.200w     15 calls
| RV: Form V                        :      8.533u      0.100s      5.178w     15 calls
| | Properties                      :      2.033u      0.050s      1.203w  44295 calls
| | Functional                      :      3.983u      0.017s      2.535w  44295 calls
| | V_xc                            :      2.367u      0.033s      1.379w  44295 calls
| JK: D                             :      0.000u      0.000s      0.000w     15 calls
| JK: USO2AO                        :      0.000u      0.000s      0.000w     15 calls
| JK: JK                            :      0.033u      0.000s      0.021w     15 calls
| | DFH: compute_JK()               :      0.033u      0.000s      0.021w     15 calls
| | | DFH: Grabbing AOs             :      0.000u      0.000s      0.000w     15 calls
| | | DFH: compute_J                :      0.033u      0.000s      0.020w     15 calls
| JK: AO2USO                        :      0.000u      0.000s      0.000w     15 calls
HF: Form F                          :      0.000u      0.000s      0.000w     15 calls
HF: Form D                          :      0.000u      0.000s      0.000w     15 calls
HF: DIIS                            :      0.000u      0.000s      0.006w     14 calls
| DIISManager::add_entry            :      0.000u      0.000s      0.001w     14 calls
| DIISManager::extrapolate          :      0.000u      0.000s      0.002w     14 calls
| | bMatrix setup                   :      0.000u      0.000s      0.001w     14 calls
| | bMatrix pseudoinverse           :      0.000u      0.000s      0.000w     14 calls
| | New vector                      :      0.000u      0.000s      0.000w     14 calls
HF: Form C                          :      0.000u      0.000s      0.003w     14 calls
Grad: V T Perturb                   :      0.083u      0.000s      0.051w      1 calls
Grad: S                             :      0.000u      0.000s      0.001w      1 calls
Grad: JK                            :      1.833u      0.000s      1.110w      1 calls
| JKGrad: Amn                       :      0.283u      0.000s      0.171w      1 calls
| JKGrad: Awmn                      :      0.000u      0.000s      0.000w      1 calls
| JKGrad: AB                        :      0.283u      0.000s      0.164w      1 calls
| JKGrad: UV                        :      0.000u      0.000s      0.000w      1 calls
| JKGrad: ABx                       :      0.117u      0.000s      0.073w      1 calls
| JKGrad: Amnx                      :      1.133u      0.000s      0.679w      1 calls
Grad: XC                            :      1.350u      0.017s      0.813w      1 calls
| Properties                        :      0.517u      0.000s      0.346w   2953 calls
| Functional                        :      0.283u      0.000s      0.170w   2953 calls
| V_xc gradient                     :      0.533u      0.017s      0.292w   2953 calls

**************************************************************************************

Host: aaojha

Timers On : Fri May 14 10:02:25 2021
Timers Off: Fri May 14 10:02:35 2021

Wall Time:        9.65 seconds

                                                       Time (seconds)
Module                                       User      System        Wall        Calls
V: Grid                             :      1.200u      0.017s      0.729w      1 calls
DFH: sparsity prep                  :      0.033u      0.000s      0.012w      1 calls
DFH: initialize()                   :      0.617u      0.033s      0.386w      1 calls
DFH: AO Construction                :      0.250u      0.000s      0.156w      1 calls
DFH: AO-Met. Contraction            :      0.083u      0.017s      0.046w      1 calls
HF: Form core H                     :      0.000u      0.000s      0.002w      1 calls
HF: Form S/X                        :      0.000u      0.000s      0.000w      1 calls
HF: Guess                           :      0.250u      0.000s      0.153w      1 calls
SAD Guess                           :      0.250u      0.000s      0.147w      1 calls
HF: Form G                          :      8.533u      0.133s      5.221w     15 calls
RV: Form V                          :      8.500u      0.133s      5.200w     15 calls
Properties                          :      2.617u      0.017s      1.548w  47184 calls
Functional                          :      4.217u      0.050s      2.729w  47184 calls
V_xc                                :      2.467u      0.067s      1.378w  44235 calls
JK: D                               :      0.000u      0.000s      0.000w     15 calls
JK: USO2AO                          :      0.000u      0.000s      0.000w     15 calls
JK: JK                              :      0.033u      0.000s      0.021w     15 calls
DFH: compute_JK()                   :      0.033u      0.000s      0.020w     15 calls
DFH: Grabbing AOs                   :      0.000u      0.000s      0.000w     15 calls
DFH: compute_J                      :      0.033u      0.000s      0.020w     15 calls
JK: AO2USO                          :      0.000u      0.000s      0.000w     15 calls
HF: Form F                          :      0.000u      0.000s      0.000w     15 calls
HF: Form D                          :      0.000u      0.000s      0.000w     15 calls
HF: DIIS                            :      0.017u      0.000s      0.016w     14 calls
DIISManager::add_entry              :      0.000u      0.000s      0.010w     14 calls
DIISManager::extrapolate            :      0.017u      0.000s      0.002w     14 calls
bMatrix setup                       :      0.000u      0.000s      0.001w     14 calls
bMatrix pseudoinverse               :      0.017u      0.000s      0.001w     14 calls
New vector                          :      0.000u      0.000s      0.001w     14 calls
HF: Form C                          :      0.000u      0.000s      0.003w     14 calls
Grad: V T Perturb                   :      0.083u      0.000s      0.050w      1 calls
Grad: S                             :      0.000u      0.000s      0.001w      1 calls
Grad: JK                            :      1.867u      0.000s      1.144w      1 calls
JKGrad: Amn                         :      0.283u      0.000s      0.173w      1 calls
JKGrad: Awmn                        :      0.000u      0.000s      0.000w      1 calls
JKGrad: AB                          :      0.283u      0.000s      0.163w      1 calls
JKGrad: UV                          :      0.000u      0.000s      0.000w      1 calls
JKGrad: ABx                         :      0.117u      0.000s      0.074w      1 calls
JKGrad: Amnx                        :      1.167u      0.000s      0.701w      1 calls
Grad: XC                            :      1.367u      0.000s      0.814w      1 calls
V_xc gradient                       :      0.433u      0.000s      0.293w   2949 calls

--------------------------------------------------------------------------------------
V: Grid                             :      1.200u      0.017s      0.729w      1 calls
DFH: sparsity prep                  :      0.033u      0.000s      0.012w      1 calls
DFH: initialize()                   :      0.617u      0.033s      0.386w      1 calls
| DFH: AO Construction              :      0.250u      0.000s      0.156w      1 calls
| DFH: AO-Met. Contraction          :      0.083u      0.017s      0.046w      1 calls
HF: Form core H                     :      0.000u      0.000s      0.002w      1 calls
HF: Form S/X                        :      0.000u      0.000s      0.000w      1 calls
HF: Guess                           :      0.250u      0.000s      0.153w      1 calls
| SAD Guess                         :      0.250u      0.000s      0.147w      1 calls
HF: Form G                          :      8.533u      0.133s      5.221w     15 calls
| RV: Form V                        :      8.500u      0.133s      5.200w     15 calls
| | Properties                      :      1.967u      0.017s      1.205w  44235 calls
| | Functional                      :      3.950u      0.050s      2.556w  44235 calls
| | V_xc                            :      2.467u      0.067s      1.378w  44235 calls
| JK: D                             :      0.000u      0.000s      0.000w     15 calls
| JK: USO2AO                        :      0.000u      0.000s      0.000w     15 calls
| JK: JK                            :      0.033u      0.000s      0.021w     15 calls
| | DFH: compute_JK()               :      0.033u      0.000s      0.020w     15 calls
| | | DFH: Grabbing AOs             :      0.000u      0.000s      0.000w     15 calls
| | | DFH: compute_J                :      0.033u      0.000s      0.020w     15 calls
| JK: AO2USO                        :      0.000u      0.000s      0.000w     15 calls
HF: Form F                          :      0.000u      0.000s      0.000w     15 calls
HF: Form D                          :      0.000u      0.000s      0.000w     15 calls
HF: DIIS                            :      0.017u      0.000s      0.016w     14 calls
| DIISManager::add_entry            :      0.000u      0.000s      0.010w     14 calls
| DIISManager::extrapolate          :      0.017u      0.000s      0.002w     14 calls
| | bMatrix setup                   :      0.000u      0.000s      0.001w     14 calls
| | bMatrix pseudoinverse           :      0.017u      0.000s      0.001w     14 calls
| | New vector                      :      0.000u      0.000s      0.001w     14 calls
HF: Form C                          :      0.000u      0.000s      0.003w     14 calls
Grad: V T Perturb                   :      0.083u      0.000s      0.050w      1 calls
Grad: S                             :      0.000u      0.000s      0.001w      1 calls
Grad: JK                            :      1.867u      0.000s      1.144w      1 calls
| JKGrad: Amn                       :      0.283u      0.000s      0.173w      1 calls
| JKGrad: Awmn                      :      0.000u      0.000s      0.000w      1 calls
| JKGrad: AB                        :      0.283u      0.000s      0.163w      1 calls
| JKGrad: UV                        :      0.000u      0.000s      0.000w      1 calls
| JKGrad: ABx                       :      0.117u      0.000s      0.074w      1 calls
| JKGrad: Amnx                      :      1.167u      0.000s      0.701w      1 calls
Grad: XC                            :      1.367u      0.000s      0.814w      1 calls
| Properties                        :      0.650u      0.000s      0.343w   2949 calls
| Functional                        :      0.267u      0.000s      0.173w   2949 calls
| V_xc gradient                     :      0.433u      0.000s      0.293w   2949 calls

**************************************************************************************

Host: aaojha

Timers On : Fri May 14 10:02:35 2021
Timers Off: Fri May 14 10:02:45 2021

Wall Time:        9.65 seconds

                                                       Time (seconds)
Module                                       User      System        Wall        Calls
V: Grid                             :      1.183u      0.033s      0.730w      1 calls
DFH: sparsity prep                  :      0.017u      0.000s      0.013w      1 calls
DFH: initialize()                   :      0.617u      0.033s      0.386w      1 calls
DFH: AO Construction                :      0.267u      0.000s      0.159w      1 calls
DFH: AO-Met. Contraction            :      0.067u      0.017s      0.045w      1 calls
HF: Form core H                     :      0.000u      0.000s      0.002w      1 calls
HF: Form S/X                        :      0.000u      0.000s      0.000w      1 calls
HF: Guess                           :      0.250u      0.000s      0.153w      1 calls
SAD Guess                           :      0.233u      0.000s      0.147w      1 calls
HF: Form G                          :      8.633u      0.100s      5.249w     15 calls
RV: Form V                          :      8.583u      0.100s      5.227w     15 calls
Properties                          :      2.483u      0.017s      1.556w  47328 calls
Functional                          :      4.367u      0.067s      2.750w  47328 calls
V_xc                                :      2.433u      0.017s      1.376w  44370 calls
JK: D                               :      0.000u      0.000s      0.000w     15 calls
JK: USO2AO                          :      0.000u      0.000s      0.000w     15 calls
JK: JK                              :      0.050u      0.000s      0.021w     15 calls
DFH: compute_JK()                   :      0.050u      0.000s      0.020w     15 calls
DFH: Grabbing AOs                   :      0.000u      0.000s      0.000w     15 calls
DFH: compute_J                      :      0.050u      0.000s      0.020w     15 calls
JK: AO2USO                          :      0.000u      0.000s      0.000w     15 calls
HF: Form F                          :      0.000u      0.000s      0.000w     15 calls
HF: Form D                          :      0.000u      0.000s      0.000w     15 calls
HF: DIIS                            :      0.017u      0.000s      0.006w     14 calls
DIISManager::add_entry              :      0.000u      0.000s      0.001w     14 calls
DIISManager::extrapolate            :      0.017u      0.000s      0.002w     14 calls
bMatrix setup                       :      0.017u      0.000s      0.001w     14 calls
bMatrix pseudoinverse               :      0.000u      0.000s      0.000w     14 calls
New vector                          :      0.000u      0.000s      0.000w     14 calls
HF: Form C                          :      0.017u      0.000s      0.003w     14 calls
Grad: V T Perturb                   :      0.083u      0.000s      0.052w      1 calls
Grad: S                             :      0.000u      0.000s      0.001w      1 calls
Grad: JK                            :      1.833u      0.000s      1.118w      1 calls
JKGrad: Amn                         :      0.283u      0.000s      0.173w      1 calls
JKGrad: Awmn                        :      0.000u      0.000s      0.000w      1 calls
JKGrad: AB                          :      0.267u      0.000s      0.162w      1 calls
JKGrad: UV                          :      0.000u      0.000s      0.000w      1 calls
JKGrad: ABx                         :      0.133u      0.000s      0.074w      1 calls
JKGrad: Amnx                        :      1.133u      0.000s      0.686w      1 calls
Grad: XC                            :      1.367u      0.017s      0.821w      1 calls
V_xc gradient                       :      0.600u      0.017s      0.295w   2958 calls

--------------------------------------------------------------------------------------
V: Grid                             :      1.183u      0.033s      0.730w      1 calls
DFH: sparsity prep                  :      0.017u      0.000s      0.013w      1 calls
DFH: initialize()                   :      0.617u      0.033s      0.386w      1 calls
| DFH: AO Construction              :      0.267u      0.000s      0.159w      1 calls
| DFH: AO-Met. Contraction          :      0.067u      0.017s      0.045w      1 calls
HF: Form core H                     :      0.000u      0.000s      0.002w      1 calls
HF: Form S/X                        :      0.000u      0.000s      0.000w      1 calls
HF: Guess                           :      0.250u      0.000s      0.153w      1 calls
| SAD Guess                         :      0.233u      0.000s      0.147w      1 calls
HF: Form G                          :      8.633u      0.100s      5.249w     15 calls
| RV: Form V                        :      8.583u      0.100s      5.227w     15 calls
| | Properties                      :      2.050u      0.017s      1.207w  44370 calls
| | Functional                      :      4.033u      0.067s      2.578w  44370 calls
| | V_xc                            :      2.433u      0.017s      1.376w  44370 calls
| JK: D                             :      0.000u      0.000s      0.000w     15 calls
| JK: USO2AO                        :      0.000u      0.000s      0.000w     15 calls
| JK: JK                            :      0.050u      0.000s      0.021w     15 calls
| | DFH: compute_JK()               :      0.050u      0.000s      0.020w     15 calls
| | | DFH: Grabbing AOs             :      0.000u      0.000s      0.000w     15 calls
| | | DFH: compute_J                :      0.050u      0.000s      0.020w     15 calls
| JK: AO2USO                        :      0.000u      0.000s      0.000w     15 calls
HF: Form F                          :      0.000u      0.000s      0.000w     15 calls
HF: Form D                          :      0.000u      0.000s      0.000w     15 calls
HF: DIIS                            :      0.017u      0.000s      0.006w     14 calls
| DIISManager::add_entry            :      0.000u      0.000s      0.001w     14 calls
| DIISManager::extrapolate          :      0.017u      0.000s      0.002w     14 calls
| | bMatrix setup                   :      0.017u      0.000s      0.001w     14 calls
| | bMatrix pseudoinverse           :      0.000u      0.000s      0.000w     14 calls
| | New vector                      :      0.000u      0.000s      0.000w     14 calls
HF: Form C                          :      0.017u      0.000s      0.003w     14 calls
Grad: V T Perturb                   :      0.083u      0.000s      0.052w      1 calls
Grad: S                             :      0.000u      0.000s      0.001w      1 calls
Grad: JK                            :      1.833u      0.000s      1.118w      1 calls
| JKGrad: Amn                       :      0.283u      0.000s      0.173w      1 calls
| JKGrad: Awmn                      :      0.000u      0.000s      0.000w      1 calls
| JKGrad: AB                        :      0.267u      0.000s      0.162w      1 calls
| JKGrad: UV                        :      0.000u      0.000s      0.000w      1 calls
| JKGrad: ABx                       :      0.133u      0.000s      0.074w      1 calls
| JKGrad: Amnx                      :      1.133u      0.000s      0.686w      1 calls
Grad: XC                            :      1.367u      0.017s      0.821w      1 calls
| Properties                        :      0.433u      0.000s      0.348w   2958 calls
| Functional                        :      0.333u      0.000s      0.173w   2958 calls
| V_xc gradient                     :      0.600u      0.017s      0.295w   2958 calls

**************************************************************************************

Host: aaojha

Timers On : Fri May 14 10:02:45 2021
Timers Off: Fri May 14 10:02:55 2021

Wall Time:        9.28 seconds

                                                       Time (seconds)
Module                                       User      System        Wall        Calls
V: Grid                             :      1.200u      0.017s      0.735w      1 calls
DFH: sparsity prep                  :      0.033u      0.000s      0.012w      1 calls
DFH: initialize()                   :      0.617u      0.017s      0.387w      1 calls
DFH: AO Construction                :      0.267u      0.000s      0.156w      1 calls
DFH: AO-Met. Contraction            :      0.083u      0.000s      0.046w      1 calls
HF: Form core H                     :      0.000u      0.000s      0.002w      1 calls
HF: Form S/X                        :      0.000u      0.000s      0.000w      1 calls
HF: Guess                           :      0.250u      0.000s      0.154w      1 calls
SAD Guess                           :      0.250u      0.000s      0.147w      1 calls
HF: Form G                          :      7.983u      0.133s      4.871w     14 calls
RV: Form V                          :      7.983u      0.133s      4.851w     14 calls
Properties                          :      2.000u      0.033s      1.472w  44250 calls
Functional                          :      4.367u      0.067s      2.546w  44250 calls
V_xc                                :      2.333u      0.033s      1.289w  41300 calls
JK: D                               :      0.000u      0.000s      0.000w     14 calls
JK: USO2AO                          :      0.000u      0.000s      0.000w     14 calls
JK: JK                              :      0.000u      0.000s      0.019w     14 calls
DFH: compute_JK()                   :      0.000u      0.000s      0.019w     14 calls
DFH: Grabbing AOs                   :      0.000u      0.000s      0.000w     14 calls
DFH: compute_J                      :      0.000u      0.000s      0.019w     14 calls
JK: AO2USO                          :      0.000u      0.000s      0.000w     14 calls
HF: Form F                          :      0.000u      0.000s      0.000w     14 calls
HF: Form D                          :      0.000u      0.000s      0.000w     14 calls
HF: DIIS                            :      0.000u      0.000s      0.006w     13 calls
DIISManager::add_entry              :      0.000u      0.000s      0.001w     13 calls
DIISManager::extrapolate            :      0.000u      0.000s      0.001w     13 calls
bMatrix setup                       :      0.000u      0.000s      0.001w     13 calls
bMatrix pseudoinverse               :      0.000u      0.000s      0.000w     13 calls
New vector                          :      0.000u      0.000s      0.000w     13 calls
HF: Form C                          :      0.000u      0.000s      0.003w     13 calls
Grad: V T Perturb                   :      0.083u      0.000s      0.052w      1 calls
Grad: S                             :      0.017u      0.000s      0.001w      1 calls
Grad: JK                            :      1.833u      0.000s      1.111w      1 calls
JKGrad: Amn                         :      0.283u      0.000s      0.173w      1 calls
JKGrad: Awmn                        :      0.000u      0.000s      0.000w      1 calls
JKGrad: AB                          :      0.267u      0.000s      0.162w      1 calls
JKGrad: UV                          :      0.000u      0.000s      0.000w      1 calls
JKGrad: ABx                         :      0.133u      0.000s      0.073w      1 calls
JKGrad: Amnx                        :      1.133u      0.000s      0.680w      1 calls
Grad: XC                            :      1.350u      0.000s      0.815w      1 calls
V_xc gradient                       :      0.467u      0.000s      0.295w   2950 calls

--------------------------------------------------------------------------------------
V: Grid                             :      1.200u      0.017s      0.735w      1 calls
DFH: sparsity prep                  :      0.033u      0.000s      0.012w      1 calls
DFH: initialize()                   :      0.617u      0.017s      0.387w      1 calls
| DFH: AO Construction              :      0.267u      0.000s      0.156w      1 calls
| DFH: AO-Met. Contraction          :      0.083u      0.000s      0.046w      1 calls
HF: Form core H                     :      0.000u      0.000s      0.002w      1 calls
HF: Form S/X                        :      0.000u      0.000s      0.000w      1 calls
HF: Guess                           :      0.250u      0.000s      0.154w      1 calls
| SAD Guess                         :      0.250u      0.000s      0.147w      1 calls
HF: Form G                          :      7.983u      0.133s      4.871w     14 calls
| RV: Form V                        :      7.983u      0.133s      4.851w     14 calls
| | Properties                      :      1.517u      0.033s      1.129w  41300 calls
| | Functional                      :      3.983u      0.067s      2.374w  41300 calls
| | V_xc                            :      2.333u      0.033s      1.289w  41300 calls
| JK: D                             :      0.000u      0.000s      0.000w     14 calls
| JK: USO2AO                        :      0.000u      0.000s      0.000w     14 calls
| JK: JK                            :      0.000u      0.000s      0.019w     14 calls
| | DFH: compute_JK()               :      0.000u      0.000s      0.019w     14 calls
| | | DFH: Grabbing AOs             :      0.000u      0.000s      0.000w     14 calls
| | | DFH: compute_J                :      0.000u      0.000s      0.019w     14 calls
| JK: AO2USO                        :      0.000u      0.000s      0.000w     14 calls
HF: Form F                          :      0.000u      0.000s      0.000w     14 calls
HF: Form D                          :      0.000u      0.000s      0.000w     14 calls
HF: DIIS                            :      0.000u      0.000s      0.006w     13 calls
| DIISManager::add_entry            :      0.000u      0.000s      0.001w     13 calls
| DIISManager::extrapolate          :      0.000u      0.000s      0.001w     13 calls
| | bMatrix setup                   :      0.000u      0.000s      0.001w     13 calls
| | bMatrix pseudoinverse           :      0.000u      0.000s      0.000w     13 calls
| | New vector                      :      0.000u      0.000s      0.000w     13 calls
HF: Form C                          :      0.000u      0.000s      0.003w     13 calls
Grad: V T Perturb                   :      0.083u      0.000s      0.052w      1 calls
Grad: S                             :      0.017u      0.000s      0.001w      1 calls
Grad: JK                            :      1.833u      0.000s      1.111w      1 calls
| JKGrad: Amn                       :      0.283u      0.000s      0.173w      1 calls
| JKGrad: Awmn                      :      0.000u      0.000s      0.000w      1 calls
| JKGrad: AB                        :      0.267u      0.000s      0.162w      1 calls
| JKGrad: UV                        :      0.000u      0.000s      0.000w      1 calls
| JKGrad: ABx                       :      0.133u      0.000s      0.073w      1 calls
| JKGrad: Amnx                      :      1.133u      0.000s      0.680w      1 calls
Grad: XC                            :      1.350u      0.000s      0.815w      1 calls
| Properties                        :      0.483u      0.000s      0.343w   2950 calls
| Functional                        :      0.383u      0.000s      0.172w   2950 calls
| V_xc gradient                     :      0.467u      0.000s      0.295w   2950 calls

**************************************************************************************

Host: aaojha

Timers On : Fri May 14 10:02:55 2021
Timers Off: Fri May 14 10:03:04 2021

Wall Time:        9.29 seconds

                                                       Time (seconds)
Module                                       User      System        Wall        Calls
V: Grid                             :      1.200u      0.017s      0.729w      1 calls
DFH: sparsity prep                  :      0.017u      0.000s      0.012w      1 calls
DFH: initialize()                   :      0.633u      0.017s      0.386w      1 calls
DFH: AO Construction                :      0.250u      0.000s      0.156w      1 calls
DFH: AO-Met. Contraction            :      0.083u      0.000s      0.045w      1 calls
HF: Form core H                     :      0.000u      0.000s      0.002w      1 calls
HF: Form S/X                        :      0.000u      0.000s      0.000w      1 calls
HF: Guess                           :      0.267u      0.000s      0.155w      1 calls
SAD Guess                           :      0.250u      0.000s      0.148w      1 calls
HF: Form G                          :      7.983u      0.150s      4.900w     14 calls
RV: Form V                          :      7.950u      0.150s      4.880w     14 calls
Properties                          :      2.317u      0.033s      1.480w  44070 calls
Functional                          :      4.267u      0.083s      2.570w  44070 calls
V_xc                                :      2.150u      0.033s      1.290w  41132 calls
JK: D                               :      0.000u      0.000s      0.000w     14 calls
JK: USO2AO                          :      0.000u      0.000s      0.000w     14 calls
JK: JK                              :      0.017u      0.000s      0.019w     14 calls
DFH: compute_JK()                   :      0.017u      0.000s      0.019w     14 calls
DFH: Grabbing AOs                   :      0.000u      0.000s      0.000w     14 calls
DFH: compute_J                      :      0.017u      0.000s      0.019w     14 calls
JK: AO2USO                          :      0.000u      0.000s      0.000w     14 calls
HF: Form F                          :      0.000u      0.000s      0.000w     14 calls
HF: Form D                          :      0.000u      0.000s      0.000w     14 calls
HF: DIIS                            :      0.017u      0.000s      0.015w     13 calls
DIISManager::add_entry              :      0.000u      0.000s      0.001w     13 calls
DIISManager::extrapolate            :      0.000u      0.000s      0.011w     13 calls
bMatrix setup                       :      0.000u      0.000s      0.010w     13 calls
bMatrix pseudoinverse               :      0.000u      0.000s      0.000w     13 calls
New vector                          :      0.000u      0.000s      0.000w     13 calls
HF: Form C                          :      0.000u      0.000s      0.003w     13 calls
Grad: V T Perturb                   :      0.083u      0.000s      0.051w      1 calls
Grad: S                             :      0.000u      0.000s      0.001w      1 calls
Grad: JK                            :      1.850u      0.000s      1.125w      1 calls
JKGrad: Amn                         :      0.283u      0.000s      0.171w      1 calls
JKGrad: Awmn                        :      0.000u      0.000s      0.000w      1 calls
JKGrad: AB                          :      0.283u      0.000s      0.162w      1 calls
JKGrad: UV                          :      0.000u      0.000s      0.000w      1 calls
JKGrad: ABx                         :      0.117u      0.000s      0.075w      1 calls
JKGrad: Amnx                        :      1.150u      0.000s      0.684w      1 calls
Grad: XC                            :      1.350u      0.000s      0.815w      1 calls
V_xc gradient                       :      0.450u      0.000s      0.292w   2938 calls

--------------------------------------------------------------------------------------
V: Grid                             :      1.200u      0.017s      0.729w      1 calls
DFH: sparsity prep                  :      0.017u      0.000s      0.012w      1 calls
DFH: initialize()                   :      0.633u      0.017s      0.386w      1 calls
| DFH: AO Construction              :      0.250u      0.000s      0.156w      1 calls
| DFH: AO-Met. Contraction          :      0.083u      0.000s      0.045w      1 calls
HF: Form core H                     :      0.000u      0.000s      0.002w      1 calls
HF: Form S/X                        :      0.000u      0.000s      0.000w      1 calls
HF: Guess                           :      0.267u      0.000s      0.155w      1 calls
| SAD Guess                         :      0.250u      0.000s      0.148w      1 calls
HF: Form G                          :      7.983u      0.150s      4.900w     14 calls
| RV: Form V                        :      7.950u      0.150s      4.880w     14 calls
| | Properties                      :      1.767u      0.033s      1.134w  41132 calls
| | Functional                      :      3.917u      0.083s      2.397w  41132 calls
| | V_xc                            :      2.150u      0.033s      1.290w  41132 calls
| JK: D                             :      0.000u      0.000s      0.000w     14 calls
| JK: USO2AO                        :      0.000u      0.000s      0.000w     14 calls
| JK: JK                            :      0.017u      0.000s      0.019w     14 calls
| | DFH: compute_JK()               :      0.017u      0.000s      0.019w     14 calls
| | | DFH: Grabbing AOs             :      0.000u      0.000s      0.000w     14 calls
| | | DFH: compute_J                :      0.017u      0.000s      0.019w     14 calls
| JK: AO2USO                        :      0.000u      0.000s      0.000w     14 calls
HF: Form F                          :      0.000u      0.000s      0.000w     14 calls
HF: Form D                          :      0.000u      0.000s      0.000w     14 calls
HF: DIIS                            :      0.017u      0.000s      0.015w     13 calls
| DIISManager::add_entry            :      0.000u      0.000s      0.001w     13 calls
| DIISManager::extrapolate          :      0.000u      0.000s      0.011w     13 calls
| | bMatrix setup                   :      0.000u      0.000s      0.010w     13 calls
| | bMatrix pseudoinverse           :      0.000u      0.000s      0.000w     13 calls
| | New vector                      :      0.000u      0.000s      0.000w     13 calls
HF: Form C                          :      0.000u      0.000s      0.003w     13 calls
Grad: V T Perturb                   :      0.083u      0.000s      0.051w      1 calls
Grad: S                             :      0.000u      0.000s      0.001w      1 calls
Grad: JK                            :      1.850u      0.000s      1.125w      1 calls
| JKGrad: Amn                       :      0.283u      0.000s      0.171w      1 calls
| JKGrad: Awmn                      :      0.000u      0.000s      0.000w      1 calls
| JKGrad: AB                        :      0.283u      0.000s      0.162w      1 calls
| JKGrad: UV                        :      0.000u      0.000s      0.000w      1 calls
| JKGrad: ABx                       :      0.117u      0.000s      0.075w      1 calls
| JKGrad: Amnx                      :      1.150u      0.000s      0.684w      1 calls
Grad: XC                            :      1.350u      0.000s      0.815w      1 calls
| Properties                        :      0.550u      0.000s      0.346w   2938 calls
| Functional                        :      0.350u      0.000s      0.173w   2938 calls
| V_xc gradient                     :      0.450u      0.000s      0.292w   2938 calls

**************************************************************************************

Host: aaojha

Timers On : Fri May 14 10:03:04 2021
Timers Off: Fri May 14 10:03:14 2021

Wall Time:        9.30 seconds

                                                       Time (seconds)
Module                                       User      System        Wall        Calls
V: Grid                             :      1.200u      0.033s      0.738w      1 calls
DFH: sparsity prep                  :      0.017u      0.000s      0.013w      1 calls
DFH: initialize()                   :      0.617u      0.017s      0.386w      1 calls
DFH: AO Construction                :      0.267u      0.000s      0.157w      1 calls
DFH: AO-Met. Contraction            :      0.067u      0.000s      0.046w      1 calls
HF: Form core H                     :      0.000u      0.000s      0.000w      1 calls
HF: Form S/X                        :      0.000u      0.000s      0.000w      1 calls
HF: Guess                           :      0.250u      0.000s      0.153w      1 calls
SAD Guess                           :      0.233u      0.000s      0.146w      1 calls
HF: Form G                          :      7.900u      0.183s      4.866w     14 calls
RV: Form V                          :      7.883u      0.183s      4.846w     14 calls
Properties                          :      2.417u      0.050s      1.472w  44190 calls
Functional                          :      3.950u      0.100s      2.543w  44190 calls
V_xc                                :      2.317u      0.050s      1.290w  41244 calls
JK: D                               :      0.000u      0.000s      0.000w     14 calls
JK: USO2AO                          :      0.000u      0.000s      0.000w     14 calls
JK: JK                              :      0.017u      0.000s      0.019w     14 calls
DFH: compute_JK()                   :      0.000u      0.000s      0.019w     14 calls
DFH: Grabbing AOs                   :      0.000u      0.000s      0.000w     14 calls
DFH: compute_J                      :      0.000u      0.000s      0.019w     14 calls
JK: AO2USO                          :      0.000u      0.000s      0.000w     14 calls
HF: Form F                          :      0.000u      0.000s      0.000w     14 calls
HF: Form D                          :      0.000u      0.000s      0.000w     14 calls
HF: DIIS                            :      0.017u      0.000s      0.015w     13 calls
[...]
JKGrad: AB                          :      0.267u      0.000s      0.162w      1 calls
JKGrad: UV                          :      0.000u      0.000s      0.000w      1 calls
JKGrad: ABx                         :      0.133u      0.000s      0.073w      1 calls
JKGrad: Amnx                        :      1.133u      0.000s      0.681w      1 calls
Grad: XC                            :      1.350u      0.017s      0.820w      1 calls
V_xc gradient                       :      0.483u      0.000s      0.298w   2946 calls

--------------------------------------------------------------------------------------
V: Grid                             :      1.200u      0.033s      0.738w      1 calls
DFH: sparsity prep                  :      0.017u      0.000s      0.013w      1 calls
DFH: initialize()                   :      0.617u      0.017s      0.386w      1 calls
| DFH: AO Construction              :      0.267u      0.000s      0.157w      1 calls
| DFH: AO-Met. Contraction          :      0.067u      0.000s      0.046w      1 calls
HF: Form core H                     :      0.000u      0.000s      0.000w      1 calls
HF: Form S/X                        :      0.000u      0.000s      0.000w      1 calls
HF: Guess                           :      0.250u      0.000s      0.153w      1 calls
| SAD Guess                         :      0.233u      0.000s      0.146w      1 calls
HF: Form G                          :      7.900u      0.183s      4.866w     14 calls
| RV: Form V                        :      7.883u      0.183s      4.846w     14 calls
| | Properties                      :      1.883u      0.050s      1.125w  41244 calls
| | Functional                      :      3.617u      0.083s      2.373w  41244 calls
| | V_xc                            :      2.317u      0.050s      1.290w  41244 calls
| JK: D                             :      0.000u      0.000s      0.000w     14 calls
| JK: USO2AO                        :      0.000u      0.000s      0.000w     14 calls
| JK: JK                            :      0.017u      0.000s      0.019w     14 calls
| | DFH: compute_JK()               :      0.000u      0.000s      0.019w     14 calls
| | | DFH: Grabbing AOs             :      0.000u      0.000s      0.000w     14 calls
| | | DFH: compute_J                :      0.000u      0.000s      0.019w     14 calls
| JK: AO2USO                        :      0.000u      0.000s      0.000w     14 calls
HF: Form F                          :      0.000u      0.000s      0.000w     14 calls
HF: Form D                          :      0.000u      0.000s      0.000w     14 calls
HF: DIIS                            :      0.017u      0.000s      0.015w     13 calls
| DIISManager::add_entry            :      0.000u      0.000s      0.001w     13 calls
| DIISManager::extrapolate          :      0.000u      0.000s      0.011w     13 calls
| | bMatrix setup                   :      0.000u      0.000s      0.010w     13 calls
| | bMatrix pseudoinverse           :      0.000u      0.000s      0.000w     13 calls
| | New vector                      :      0.000u      0.000s      0.000w     13 calls
HF: Form C                          :      0.017u      0.000s      0.003w     13 calls
Grad: V T Perturb                   :      0.100u      0.000s      0.053w      1 calls
Grad: S                             :      0.000u      0.000s      0.001w      1 calls
Grad: JK                            :      1.833u      0.000s      1.102w      1 calls
| JKGrad: Amn                       :      0.283u      0.000s      0.170w      1 calls
| JKGrad: Awmn                      :      0.000u      0.000s      0.000w      1 calls
| JKGrad: AB                        :      0.267u      0.000s      0.162w      1 calls
| JKGrad: UV                        :      0.000u      0.000s      0.000w      1 calls
| JKGrad: ABx                       :      0.133u      0.000s      0.073w      1 calls
| JKGrad: Amnx                      :      1.133u      0.000s      0.681w      1 calls
Grad: XC                            :      1.350u      0.017s      0.820w      1 calls
| Properties                        :      0.533u      0.000s      0.347w   2946 calls
| Functional                        :      0.333u      0.017s      0.171w   2946 calls
| V_xc gradient                     :      0.483u      0.000s      0.298w   2946 calls

**************************************************************************************

Host: aaojha

Timers On : Fri May 14 10:03:14 2021
Timers Off: Fri May 14 10:03:23 2021

Wall Time:        9.28 seconds

                                                       Time (seconds)
Module                                       User      System        Wall        Calls
V: Grid                             :      1.200u      0.033s      0.731w      1 calls
DFH: sparsity prep                  :      0.033u      0.000s      0.012w      1 calls
DFH: initialize()                   :      0.617u      0.017s      0.382w      1 calls
DFH: AO Construction                :      0.250u      0.000s      0.155w      1 calls
DFH: AO-Met. Contraction            :      0.083u      0.000s      0.045w      1 calls
HF: Form core H                     :      0.000u      0.000s      0.002w      1 calls
HF: Form S/X                        :      0.000u      0.000s      0.000w      1 calls
HF: Guess                           :      0.267u      0.000s      0.155w      1 calls
SAD Guess                           :      0.250u      0.000s      0.148w      1 calls
HF: Form G                          :      8.017u      0.100s      4.883w     14 calls
RV: Form V                          :      7.983u      0.100s      4.863w     14 calls
Properties                          :      2.533u      0.000s      1.473w  44250 calls
Functional                          :      4.233u      0.067s      2.566w  44250 calls
V_xc                                :      1.883u      0.033s      1.286w  41300 calls
JK: D                               :      0.000u      0.000s      0.000w     14 calls
JK: USO2AO                          :      0.000u      0.000s      0.000w     14 calls
JK: JK                              :      0.033u      0.000s      0.019w     14 calls
DFH: compute_JK()                   :      0.033u      0.000s      0.019w     14 calls
DFH: Grabbing AOs                   :      0.000u      0.000s      0.000w     14 calls
DFH: compute_J                      :      0.033u      0.000s      0.019w     14 calls
JK: AO2USO                          :      0.000u      0.000s      0.000w     14 calls
HF: Form F                          :      0.000u      0.000s      0.000w     14 calls
HF: Form D                          :      0.000u      0.000s      0.000w     14 calls
HF: DIIS                            :      0.000u      0.000s      0.006w     13 calls
DIISManager::add_entry              :      0.000u      0.000s      0.001w     13 calls
DIISManager::extrapolate            :      0.000u      0.000s      0.001w     13 calls
bMatrix setup                       :      0.000u      0.000s      0.001w     13 calls
bMatrix pseudoinverse               :      0.000u      0.000s      0.000w     13 calls
New vector                          :      0.000u      0.000s      0.000w     13 calls
HF: Form C                          :      0.017u      0.000s      0.003w     13 calls
Grad: V T Perturb                   :      0.083u      0.000s      0.051w      1 calls
Grad: S                             :      0.000u      0.000s      0.001w      1 calls
Grad: JK                            :      1.833u      0.017s      1.123w      1 calls
JKGrad: Amn                         :      0.283u      0.000s      0.169w      1 calls
JKGrad: Awmn                        :      0.000u      0.000s      0.000w      1 calls
JKGrad: AB                          :      0.267u      0.000s      0.162w      1 calls
JKGrad: UV                          :      0.000u      0.000s      0.000w      1 calls
JKGrad: ABx                         :      0.117u      0.000s      0.074w      1 calls
JKGrad: Amnx                        :      1.150u      0.000s      0.685w      1 calls
Grad: XC                            :      1.350u      0.000s      0.821w      1 calls
V_xc gradient                       :      0.567u      0.000s      0.295w   2950 calls

--------------------------------------------------------------------------------------
V: Grid                             :      1.200u      0.033s      0.731w      1 calls
DFH: sparsity prep                  :      0.033u      0.000s      0.012w      1 calls
DFH: initialize()                   :      0.617u      0.017s      0.382w      1 calls
| DFH: AO Construction              :      0.250u      0.000s      0.155w      1 calls
| DFH: AO-Met. Contraction          :      0.083u      0.000s      0.045w      1 calls
HF: Form core H                     :      0.000u      0.000s      0.002w      1 calls
HF: Form S/X                        :      0.000u      0.000s      0.000w      1 calls
HF: Guess                           :      0.267u      0.000s      0.155w      1 calls
| SAD Guess                         :      0.250u      0.000s      0.148w      1 calls
HF: Form G                          :      8.017u      0.100s      4.883w     14 calls
| RV: Form V                        :      7.983u      0.100s      4.863w     14 calls
| | Properties                      :      2.000u      0.000s      1.125w  41300 calls
| | Functional                      :      3.983u      0.067s      2.393w  41300 calls
| | V_xc                            :      1.883u      0.033s      1.286w  41300 calls
| JK: D                             :      0.000u      0.000s      0.000w     14 calls
| JK: USO2AO                        :      0.000u      0.000s      0.000w     14 calls
| JK: JK                            :      0.033u      0.000s      0.019w     14 calls
| | DFH: compute_JK()               :      0.033u      0.000s      0.019w     14 calls
| | | DFH: Grabbing AOs             :      0.000u      0.000s      0.000w     14 calls
| | | DFH: compute_J                :      0.033u      0.000s      0.019w     14 calls
| JK: AO2USO                        :      0.000u      0.000s      0.000w     14 calls
HF: Form F                          :      0.000u      0.000s      0.000w     14 calls
HF: Form D                          :      0.000u      0.000s      0.000w     14 calls
HF: DIIS                            :      0.000u      0.000s      0.006w     13 calls
| DIISManager::add_entry            :      0.000u      0.000s      0.001w     13 calls
| DIISManager::extrapolate          :      0.000u      0.000s      0.001w     13 calls
| | bMatrix setup                   :      0.000u      0.000s      0.001w     13 calls
| | bMatrix pseudoinverse           :      0.000u      0.000s      0.000w     13 calls
| | New vector                      :      0.000u      0.000s      0.000w     13 calls
HF: Form C                          :      0.017u      0.000s      0.003w     13 calls
Grad: V T Perturb                   :      0.083u      0.000s      0.051w      1 calls
Grad: S                             :      0.000u      0.000s      0.001w      1 calls
Grad: JK                            :      1.833u      0.017s      1.123w      1 calls
| JKGrad: Amn                       :      0.283u      0.000s      0.169w      1 calls
| JKGrad: Awmn                      :      0.000u      0.000s      0.000w      1 calls
| JKGrad: AB                        :      0.267u      0.000s      0.162w      1 calls
| JKGrad: UV                        :      0.000u      0.000s      0.000w      1 calls
| JKGrad: ABx                       :      0.117u      0.000s      0.074w      1 calls
| JKGrad: Amnx                      :      1.150u      0.000s      0.685w      1 calls
Grad: XC                            :      1.350u      0.000s      0.821w      1 calls
| Properties                        :      0.533u      0.000s      0.348w   2950 calls
| Functional                        :      0.250u      0.000s      0.173w   2950 calls
| V_xc gradient                     :      0.567u      0.000s      0.295w   2950 calls

**************************************************************************************

Host: aaojha

Timers On : Fri May 14 10:03:23 2021
Timers Off: Fri May 14 10:03:33 2021

Wall Time:        9.34 seconds

                                                       Time (seconds)
Module                                       User      System        Wall        Calls
V: Grid                             :      1.200u      0.017s      0.731w      1 calls
DFH: sparsity prep                  :      0.017u      0.000s      0.012w      1 calls
DFH: initialize()                   :      0.617u      0.033s      0.385w      1 calls
DFH: AO Construction                :      0.250u      0.000s      0.156w      1 calls
DFH: AO-Met. Contraction            :      0.083u      0.000s      0.045w      1 calls
HF: Form core H                     :      0.000u      0.000s      0.002w      1 calls
HF: Form S/X                        :      0.000u      0.000s      0.000w      1 calls
HF: Guess                           :      0.267u      0.000s      0.153w      1 calls
SAD Guess                           :      0.250u      0.000s      0.146w      1 calls
HF: Form G                          :      7.983u      0.150s      4.886w     14 calls
RV: Form V                          :      7.933u      0.150s      4.866w     14 calls
Properties                          :      2.200u      0.050s      1.486w  44175 calls
Functional                          :      4.067u      0.067s      2.556w  44175 calls
V_xc                                :      2.417u      0.017s      1.292w  41230 calls
JK: D                               :      0.000u      0.000s      0.000w     14 calls
JK: USO2AO                          :      0.000u      0.000s      0.000w     14 calls
JK: JK                              :      0.033u      0.000s      0.019w     14 calls
DFH: compute_JK()                   :      0.033u      0.000s      0.019w     14 calls
DFH: Grabbing AOs                   :      0.000u      0.000s      0.000w     14 calls
DFH: compute_J                      :      0.033u      0.000s      0.019w     14 calls
JK: AO2USO                          :      0.000u      0.000s      0.000w     14 calls
HF: Form F                          :      0.000u      0.000s      0.000w     14 calls
HF: Form D                          :      0.000u      0.000s      0.000w     14 calls
HF: DIIS                            :      0.017u      0.000s      0.015w     13 calls
DIISManager::add_entry              :      0.000u      0.000s      0.001w     13 calls
DIISManager::extrapolate            :      0.017u      0.000s      0.011w     13 calls
bMatrix setup                       :      0.000u      0.000s      0.010w     13 calls
bMatrix pseudoinverse               :      0.017u      0.000s      0.000w     13 calls
New vector                          :      0.000u      0.000s      0.000w     13 calls
HF: Form C                          :      0.000u      0.000s      0.003w     13 calls
Grad: V T Perturb                   :      0.083u      0.000s      0.051w      1 calls
Grad: S                             :      0.000u      0.000s      0.001w      1 calls
Grad: JK                            :      1.833u      0.000s      1.114w      1 calls
JKGrad: Amn                         :      0.300u      0.000s      0.172w      1 calls
JKGrad: Awmn                        :      0.000u      0.000s      0.000w      1 calls
JKGrad: AB                          :      0.267u      0.000s      0.162w      1 calls
JKGrad: UV                          :      0.000u      0.000s      0.000w      1 calls
JKGrad: ABx                         :      0.117u      0.000s      0.074w      1 calls
JKGrad: Amnx                        :      1.133u      0.000s      0.683w      1 calls
Grad: XC                            :      1.400u      0.000s      0.831w      1 calls
V_xc gradient                       :      0.633u      0.000s      0.302w   2945 calls

--------------------------------------------------------------------------------------
V: Grid                             :      1.200u      0.017s      0.731w      1 calls
DFH: sparsity prep                  :      0.017u      0.000s      0.012w      1 calls
DFH: initialize()                   :      0.617u      0.033s      0.385w      1 calls
| DFH: AO Construction              :      0.250u      0.000s      0.156w      1 calls
| DFH: AO-Met. Contraction          :      0.083u      0.000s      0.045w      1 calls
HF: Form core H                     :      0.000u      0.000s      0.002w      1 calls
HF: Form S/X                        :      0.000u      0.000s      0.000w      1 calls
HF: Guess                           :      0.267u      0.000s      0.153w      1 calls
| SAD Guess                         :      0.250u      0.000s      0.146w      1 calls
HF: Form G                          :      7.983u      0.150s      4.886w     14 calls
| RV: Form V                        :      7.933u      0.150s      4.866w     14 calls
| | Properties                      :      1.767u      0.050s      1.133w  41230 calls
| | Functional                      :      3.733u      0.067s      2.384w  41230 calls
| | V_xc                            :      2.417u      0.017s      1.292w  41230 calls
| JK: D                             :      0.000u      0.000s      0.000w     14 calls
| JK: USO2AO                        :      0.000u      0.000s      0.000w     14 calls
| JK: JK                            :      0.033u      0.000s      0.019w     14 calls
| | DFH: compute_JK()               :      0.033u      0.000s      0.019w     14 calls
| | | DFH: Grabbing AOs             :      0.000u      0.000s      0.000w     14 calls
| | | DFH: compute_J                :      0.033u      0.000s      0.019w     14 calls
| JK: AO2USO                        :      0.000u      0.000s      0.000w     14 calls
HF: Form F                          :      0.000u      0.000s      0.000w     14 calls
HF: Form D                          :      0.000u      0.000s      0.000w     14 calls
HF: DIIS                            :      0.017u      0.000s      0.015w     13 calls
| DIISManager::add_entry            :      0.000u      0.000s      0.001w     13 calls
| DIISManager::extrapolate          :      0.017u      0.000s      0.011w     13 calls
| | bMatrix setup                   :      0.000u      0.000s      0.010w     13 calls
| | bMatrix pseudoinverse           :      0.017u      0.000s      0.000w     13 calls
| | New vector                      :      0.000u      0.000s      0.000w     13 calls
HF: Form C                          :      0.000u      0.000s      0.003w     13 calls
Grad: V T Perturb                   :      0.083u      0.000s      0.051w      1 calls
Grad: S                             :      0.000u      0.000s      0.001w      1 calls
Grad: JK                            :      1.833u      0.000s      1.114w      1 calls
| JKGrad: Amn                       :      0.300u      0.000s      0.172w      1 calls
| JKGrad: Awmn                      :      0.000u      0.000s      0.000w      1 calls
| JKGrad: AB                        :      0.267u      0.000s      0.162w      1 calls
| JKGrad: UV                        :      0.000u      0.000s      0.000w      1 calls
| JKGrad: ABx                       :      0.117u      0.000s      0.074w      1 calls
| JKGrad: Amnx                      :      1.133u      0.000s      0.683w      1 calls
Grad: XC                            :      1.400u      0.000s      0.831w      1 calls
| Properties                        :      0.433u      0.000s      0.353w   2945 calls
| Functional                        :      0.333u      0.000s      0.171w   2945 calls
| V_xc gradient                     :      0.633u      0.000s      0.302w   2945 calls

**************************************************************************************
