
    -----------------------------------------------------------------------
          Psi4: An Open-Source Ab Initio Electronic Structure Package
                               Psi4 1.3.2 release

                         Git: Rev {HEAD} ecbda83 


    R. M. Parrish, L. A. Burns, D. G. A. Smith, A. C. Simmonett,
    A. E. DePrince III, E. G. Hohenstein, U. Bozkaya, A. Yu. Sokolov,
    R. Di Remigio, R. M. Richard, J. F. Gonthier, A. M. James,
    H. R. McAlexander, A. Kumar, M. Saitow, X. Wang, B. P. Pritchard,
    P. Verma, H. F. Schaefer III, K. Patkowski, R. A. King, E. F. Valeev,
    F. A. Evangelista, J. M. Turney, T. D. Crawford, and C. D. Sherrill,
    J. Chem. Theory Comput. 13(7) pp 3185--3197 (2017).
    (doi: 10.1021/acs.jctc.7b00174)


                         Additional Contributions by
    P. Kraus, H. Kruse, M. H. Lechner, M. C. Schieber, R. A. Shaw,
    A. Alenaizan, R. Galvelis, Z. L. Glick, S. Lehtola, and J. P. Misiewicz

    -----------------------------------------------------------------------


    Psi4 started on: Friday, 14 May 2021 09:54AM

    Process ID: 10413
    Host:       aaojha
    PSIDATADIR: /home/aaojha/anaconda3/envs/torsiondrive/share/psi4
    Memory:     500.0 MiB
    Threads:    1
    
  ==> Input File <==

--------------------------------------------------------------------------
memory 50 GB
molecule {
1 1
C           0.1505921     0.0605235    -0.0489324
C          -0.5586544    -0.8509780    -0.8983738
C          -1.9768679    -0.8814158    -0.8509859
C          -2.6840716    -0.0138021     0.0316994
C          -1.9743080     0.8804279     0.8858565
C          -0.5557105     0.9087047     0.8654990
C           1.6665979     0.0305449    -0.0298112
N           2.3360875    -0.2364726     1.1469436
N           2.3760653     0.1660298    -1.2053737
H          -0.0061598    -1.5348091    -1.5717380
H          -2.5310796    -1.5879784    -1.4991261
H          -3.7917139    -0.0387989     0.0585712
H          -2.5271439     1.5521752     1.5710908
H          -0.0016096     1.6051355     1.5245572
H           3.3868675    -0.2210452     1.2285298
H           1.7807828    -0.3805315     2.0288153
H           3.4250478     0.0793542    -1.2570387
H           1.8613426     0.4052320    -2.0910351
}
set {
basis STO-3G
}
gradient('BLYP')
--------------------------------------------------------------------------

  Memory set to  46.566 GiB by Python driver.
gradient() will perform analytic gradient computation.

*** tstart() called on aaojha
*** at Fri May 14 09:54:06 2021

   => Loading Basis Set <=

    Name: STO-3G
    Role: ORBITAL
    Keyword: BASIS
    atoms 1-7   entry C          line    61 file /home/aaojha/anaconda3/envs/torsiondrive/share/psi4/basis/sto-3g.gbs 
    atoms 8-9   entry N          line    71 file /home/aaojha/anaconda3/envs/torsiondrive/share/psi4/basis/sto-3g.gbs 
    atoms 10-18 entry H          line    19 file /home/aaojha/anaconda3/envs/torsiondrive/share/psi4/basis/sto-3g.gbs 


         ---------------------------------------------------------
                                   SCF
               by Justin Turney, Rob Parrish, Andy Simmonett
                          and Daniel G. A. Smith
                              RKS Reference
                        1 Threads,  47683 MiB Core
         ---------------------------------------------------------

  ==> Geometry <==

    Molecular point group: c1
    Full point group: C1

    Geometry (in Angstrom), charge = 1, multiplicity = 1:

       Center              X                  Y                   Z               Mass       
    ------------   -----------------  -----------------  -----------------  -----------------
         C            0.180289167395     0.056398586873    -0.037648523393    12.000000000000
         C           -0.528957332605    -0.855102913127    -0.887089923393    12.000000000000
         C           -1.947170832605    -0.885540713127    -0.839702023393    12.000000000000
         C           -2.654374532605    -0.017927013127     0.042983276607    12.000000000000
         C           -1.944610932605     0.876302986873     0.897140376607    12.000000000000
         C           -0.526013432605     0.904579786873     0.876782876607    12.000000000000
         C            1.696294967395     0.026419986873    -0.018527323393    12.000000000000
         N            2.365784567395    -0.240597513127     1.158227476607    14.003074004430
         N            2.405762367395     0.161904886873    -1.194089823393    14.003074004430
         H            0.023537267395    -1.538934013127    -1.560454123393     1.007825032230
         H           -2.501382532605    -1.592103313127    -1.487842223393     1.007825032230
         H           -3.762016832605    -0.042923813127     0.069855076607     1.007825032230
         H           -2.497446832605     1.548050286873     1.582374676607     1.007825032230
         H            0.028087467395     1.601010586873     1.535841076607     1.007825032230
         H            3.416564567395    -0.225170113127     1.239813676607     1.007825032230
         H            1.810479867395    -0.384656413127     2.040099176607     1.007825032230
         H            3.454744867395     0.075229286873    -1.245754823393     1.007825032230
         H            1.891039667395     0.401107086873    -2.079751223393     1.007825032230

  Running in c1 symmetry.

  Rotational constants: A =      0.11587  B =      0.03650  C =      0.03055 [cm^-1]
  Rotational constants: A =   3473.67494  B =   1094.19533  C =    915.82617 [MHz]
  Nuclear repulsion =  405.988796924736960

  Charge       = 1
  Multiplicity = 1
  Electrons    = 64
  Nalpha       = 32
  Nbeta        = 32

  ==> Algorithm <==

  SCF Algorithm Type is DF.
  DIIS enabled.
  MOM disabled.
  Fractional occupation disabled.
  Guess Type is SAD.
  Energy threshold   = 1.00e-08
  Density threshold  = 1.00e-08
  Integral threshold = 0.00e+00

  ==> Primary Basis <==

  Basis Set: STO-3G
    Blend: STO-3G
    Number of shells: 36
    Number of basis function: 54
    Number of Cartesian functions: 54
    Spherical Harmonics?: true
    Max angular momentum: 1

  ==> DFT Potential <==

   => Composite Functional: BLYP <= 

    BLYP GGA Exchange-Correlation Functional

    P.J. Stephens et. al., J. Phys. Chem., 98, 11623-11627, 1994
    B. Miehlich et. al., Chem. Phys. Lett., 157(3), 200-206 1989


    Deriv               =              1
    GGA                 =           TRUE
    Meta                =          FALSE

    Exchange Hybrid     =          FALSE
    MP2 Hybrid          =          FALSE

   => Exchange Functionals <=

    1.0000     XC_GGA_X_B88

   => Correlation Functionals <=

    1.0000     XC_GGA_C_LYP

   => Molecular Quadrature <=

    Radial Scheme          =       TREUTLER
    Pruning Scheme         =           FLAT
    Nuclear Scheme         =       TREUTLER

    BS radius alpha        =              1
    Pruning alpha          =              1
    Radial Points          =             75
    Spherical Points       =            302
    Total Points           =         395612
    Total Blocks           =           2969
    Max Points             =            256
    Max Functions          =             51

   => Loading Basis Set <=

    Name: (STO-3G AUX)
    Role: JKFIT
    Keyword: DF_BASIS_SCF
    atoms 1-7   entry C          line   203 file /home/aaojha/anaconda3/envs/torsiondrive/share/psi4/basis/def2-svp-jkfit.gbs 
    atoms 8-9   entry N          line   263 file /home/aaojha/anaconda3/envs/torsiondrive/share/psi4/basis/def2-svp-jkfit.gbs 
    atoms 10-18 entry H          line    23 file /home/aaojha/anaconda3/envs/torsiondrive/share/psi4/basis/def2-svp-jkfit.gbs 

  ==> Pre-Iterations <==

   -------------------------------------------------------
    Irrep   Nso     Nmo     Nalpha   Nbeta   Ndocc  Nsocc
   -------------------------------------------------------
     A         54      54       0       0       0       0
   -------------------------------------------------------
    Total      54      54      32      32      32       0
   -------------------------------------------------------

  ==> Integral Setup <==

  DFHelper Memory: AOs need 0.024 GiB; user supplied 34.423 GiB. Using in-core AOs.

  ==> MemDFJK: Density-Fitted J/K Matrices <==

    J tasked:                   Yes
    K tasked:                    No
    wK tasked:                   No
    OpenMP threads:               1
    Memory [MiB]:             35249
    Algorithm:                 Core
    Schwarz Cutoff:           1E-12
    Mask sparsity (%):       1.9204
    Fitting Condition:        1E-10

   => Auxiliary Basis Set <=

  Basis Set: (STO-3G AUX)
    Blend: DEF2-SVP-JKFIT
    Number of shells: 279
    Number of basis function: 841
    Number of Cartesian functions: 989
    Spherical Harmonics?: true
    Max angular momentum: 4

  Cached 100.0% of DFT collocation blocks in 0.502 [GiB].

  Minimum eigenvalue in the overlap matrix is 1.8792850407E-01.
  Using Symmetric Orthogonalization.

  SCF Guess: Superposition of Atomic Densities via on-the-fly atomic UHF.

  ==> Iterations <==

                           Total Energy        Delta E     RMS |[F,P]|

   @DF-RKS iter SAD:  -373.14347679769833   -3.73143e+02   0.00000e+00 
   @DF-RKS iter   1:  -376.48270622153632   -3.33923e+00   5.12376e-03 DIIS
   @DF-RKS iter   2:  -376.33491563405312    1.47791e-01   1.01400e-02 DIIS
   @DF-RKS iter   3:  -376.53365005960984   -1.98734e-01   1.56665e-03 DIIS
   @DF-RKS iter   4:  -376.53778936807430   -4.13931e-03   6.73139e-04 DIIS
   @DF-RKS iter   5:  -376.53875169558637   -9.62328e-04   1.67122e-04 DIIS
   @DF-RKS iter   6:  -376.53880704681819   -5.53512e-05   3.97167e-05 DIIS
   @DF-RKS iter   7:  -376.53880971763908   -2.67082e-06   1.49907e-05 DIIS
   @DF-RKS iter   8:  -376.53881009864517   -3.81006e-07   5.10585e-06 DIIS
   @DF-RKS iter   9:  -376.53881015162972   -5.29845e-08   1.40671e-06 DIIS
   @DF-RKS iter  10:  -376.53881015491856   -3.28885e-09   5.29386e-07 DIIS
   @DF-RKS iter  11:  -376.53881015549177   -5.73209e-10   1.28578e-07 DIIS
   @DF-RKS iter  12:  -376.53881015552201   -3.02407e-11   3.26963e-08 DIIS
   @DF-RKS iter  13:  -376.53881015552327   -1.25056e-12   1.91852e-08 DIIS
   @DF-RKS iter  14:  -376.53881015552429   -1.02318e-12   5.64962e-09 DIIS
  Energy and wave function converged.


  ==> Post-Iterations <==

    Orbital Energies [Eh]
    ---------------------

    Doubly Occupied:                                                      

       1A    -14.129699     2A    -14.129421     3A    -10.096009  
       4A     -9.944610     5A     -9.918907     6A     -9.918068  
       7A     -9.906508     8A     -9.905151     9A     -9.904764  
      10A     -1.046515    11A     -0.968375    12A     -0.876481  
      13A     -0.801858    14A     -0.775383    15A     -0.736604  
      16A     -0.678970    17A     -0.662814    18A     -0.642191  
      19A     -0.627921    20A     -0.596534    21A     -0.568531  
      22A     -0.528888    23A     -0.515006    24A     -0.481677  
      25A     -0.480793    26A     -0.473130    27A     -0.415575  
      28A     -0.410989    29A     -0.404958    30A     -0.368896  
      31A     -0.319067    32A     -0.313282  

    Virtual:                                                              

      33A     -0.183134    34A     -0.106041    35A     -0.100664  
      36A      0.010294    37A      0.022327    38A      0.050618  
      39A      0.056646    40A      0.114660    41A      0.119378  
      42A      0.164990    43A      0.187522    44A      0.194929  
      45A      0.232541    46A      0.235785    47A      0.255649  
      48A      0.281280    49A      0.348655    50A      0.352383  
      51A      0.360009    52A      0.369939    53A      0.495997  
      54A      0.540331  

    Final Occupation by Irrep:
              A 
    DOCC [    32 ]

  @DF-RKS Final Energy:  -376.53881015552429

   => Energetics <=

    Nuclear Repulsion Energy =            405.9887969247369597
    One-Electron Energy =               -1302.9532015759123169
    Two-Electron Energy =                 574.7183787058663711
    DFT Exchange-Correlation Energy =     -54.2927842102153875
    Empirical Dispersion Energy =           0.0000000000000000
    VV10 Nonlocal Energy =                  0.0000000000000000
    Total Energy =                       -376.5388101555242883

Computation Completed


Properties will be evaluated at   0.000000,   0.000000,   0.000000 [a0]

Properties computed using the SCF density matrix

  Nuclear Dipole Moment: [e a0]
     X:     1.7332      Y:    -0.1483      Z:     0.0884

  Electronic Dipole Moment: [e a0]
     X:     0.9876      Y:     0.1396      Z:    -0.0801

  Dipole Moment: [e a0]
     X:     2.7208      Y:    -0.0086      Z:     0.0083     Total:     2.7209

  Dipole Moment: [D]
     X:     6.9157      Y:    -0.0219      Z:     0.0211     Total:     6.9158


*** tstop() called on aaojha at Fri May 14 09:54:13 2021
Module time:
	user time   =       7.36 seconds =       0.12 minutes
	system time =       0.24 seconds =       0.00 minutes
	total time  =          7 seconds =       0.12 minutes
Total time:
	user time   =       7.36 seconds =       0.12 minutes
	system time =       0.24 seconds =       0.00 minutes
	total time  =          7 seconds =       0.12 minutes

*** tstart() called on aaojha
*** at Fri May 14 09:54:13 2021


         ------------------------------------------------------------
                                   SCF GRAD                          
                          Rob Parrish, Justin Turney,                
                       Andy Simmonett, and Alex Sokolov              
         ------------------------------------------------------------

  ==> Geometry <==

    Molecular point group: c1
    Full point group: C1

    Geometry (in Angstrom), charge = 1, multiplicity = 1:

       Center              X                  Y                   Z               Mass       
    ------------   -----------------  -----------------  -----------------  -----------------
         C            0.180289167395     0.056398586873    -0.037648523393    12.000000000000
         C           -0.528957332605    -0.855102913127    -0.887089923393    12.000000000000
         C           -1.947170832605    -0.885540713127    -0.839702023393    12.000000000000
         C           -2.654374532605    -0.017927013127     0.042983276607    12.000000000000
         C           -1.944610932605     0.876302986873     0.897140376607    12.000000000000
         C           -0.526013432605     0.904579786873     0.876782876607    12.000000000000
         C            1.696294967395     0.026419986873    -0.018527323393    12.000000000000
         N            2.365784567395    -0.240597513127     1.158227476607    14.003074004430
         N            2.405762367395     0.161904886873    -1.194089823393    14.003074004430
         H            0.023537267395    -1.538934013127    -1.560454123393     1.007825032230
         H           -2.501382532605    -1.592103313127    -1.487842223393     1.007825032230
         H           -3.762016832605    -0.042923813127     0.069855076607     1.007825032230
         H           -2.497446832605     1.548050286873     1.582374676607     1.007825032230
         H            0.028087467395     1.601010586873     1.535841076607     1.007825032230
         H            3.416564567395    -0.225170113127     1.239813676607     1.007825032230
         H            1.810479867395    -0.384656413127     2.040099176607     1.007825032230
         H            3.454744867395     0.075229286873    -1.245754823393     1.007825032230
         H            1.891039667395     0.401107086873    -2.079751223393     1.007825032230

  Nuclear repulsion =  405.988796924736960

  ==> Basis Set <==

  Basis Set: STO-3G
    Blend: STO-3G
    Number of shells: 36
    Number of basis function: 54
    Number of Cartesian functions: 54
    Spherical Harmonics?: true
    Max angular momentum: 1

  ==> DFJKGrad: Density-Fitted SCF Gradients <==

    Gradient:                    1
    J tasked:                  Yes
    K tasked:                   No
    wK tasked:                  No
    OpenMP threads:              1
    Integrals threads:           1
    Memory [MiB]:            35762
    Schwarz Cutoff:          0E+00
    Fitting Condition:       1E-10

   => Auxiliary Basis Set <=

  Basis Set: (STO-3G AUX)
    Blend: DEF2-SVP-JKFIT
    Number of shells: 279
    Number of basis function: 841
    Number of Cartesian functions: 989
    Spherical Harmonics?: true
    Max angular momentum: 4

  ==> DFT Potential <==

   => Composite Functional: BLYP <= 

    BLYP GGA Exchange-Correlation Functional

    P.J. Stephens et. al., J. Phys. Chem., 98, 11623-11627, 1994
    B. Miehlich et. al., Chem. Phys. Lett., 157(3), 200-206 1989


    Deriv               =              1
    GGA                 =           TRUE
    Meta                =          FALSE

    Exchange Hybrid     =          FALSE
    MP2 Hybrid          =          FALSE

   => Exchange Functionals <=

    1.0000     XC_GGA_X_B88

   => Correlation Functionals <=

    1.0000     XC_GGA_C_LYP

   => Molecular Quadrature <=

    Radial Scheme          =       TREUTLER
    Pruning Scheme         =           FLAT
    Nuclear Scheme         =       TREUTLER

    BS radius alpha        =              1
    Pruning alpha          =              1
    Radial Points          =             75
    Spherical Points       =            302
    Total Points           =         395612
    Total Blocks           =           2969
    Max Points             =            256
    Max Functions          =             51


  -Total Gradient:
     Atom            X                  Y                   Z
    ------   -----------------  -----------------  -----------------
       1        0.000220263948     0.002296621742    -0.005346343734
       2       -0.000052671540    -0.003043788541     0.003289648852
       3        0.000056498720     0.000066079072     0.000071693501
       4       -0.000011367847     0.000000285194    -0.000009614983
       5       -0.000107422899     0.000101747552     0.000117707209
       6       -0.000065930417    -0.000137534395    -0.000147665043
       7       -0.000063514542     0.005393956465     0.003074662916
       8        0.000056190968    -0.004513971199    -0.001174729299
       9       -0.000030632547    -0.000144986646    -0.000126009381
      10        0.000011622869    -0.000009746704     0.000015500270
      11        0.000004970105     0.000003652895     0.000005952849
      12       -0.000000490955     0.000014638313     0.000014568511
      13       -0.000020025485     0.000000153276     0.000003536582
      14       -0.000014150112    -0.000025638703    -0.000002046321
      15       -0.000023680327    -0.000078048948     0.000223794457
      16        0.000022616037    -0.000013680876    -0.000038316718
      17        0.000008422370     0.000047213760     0.000009660007
      18        0.000009912552     0.000051367802     0.000002127268


*** tstop() called on aaojha at Fri May 14 09:54:15 2021
Module time:
	user time   =       2.03 seconds =       0.03 minutes
	system time =       0.01 seconds =       0.00 minutes
	total time  =          2 seconds =       0.03 minutes
Total time:
	user time   =       9.39 seconds =       0.16 minutes
	system time =       0.25 seconds =       0.00 minutes
	total time  =          9 seconds =       0.15 minutes

    Psi4 stopped on: Friday, 14 May 2021 09:54AM
    Psi4 wall time for execution: 0:00:09.70

*** Psi4 exiting successfully. Buy a developer a beer!
