18   
Iteration 0 Energy -376.54115593
C        0.1541917000    0.0383964000   -0.0314905000
C       -0.5624117000   -0.7866697000   -0.9624153000
C       -1.9801702000   -0.8074947000   -0.9280200000
C       -2.6841636000   -0.0092552000    0.0212472000
C       -1.9720679000    0.8059043000    0.9503088000
C       -0.5541510000    0.8233163000    0.9394354000
C        1.6639234000    0.0174198000   -0.0238296000
N        2.3540969000   -0.0545982000    1.1703192000
N        2.3664712000    0.0057695000   -1.2128442000
H       -0.0145673000   -1.4251069000   -1.6826045000
H       -2.5372823000   -1.4513127000   -1.6362881000
H       -3.7923355000   -0.0251410000    0.0395661000
H       -2.5238827000    1.4272584000    1.6823645000
H       -0.0014250000    1.4705406000    1.6481140000
H        3.4049695000   -0.0118136000    1.2249207000
H        1.8187872000   -0.1103128000    2.0733445000
H        3.4149214000   -0.0819210000   -1.2564995000
H        1.8481423000    0.1221912000   -2.1198938000
18   
Iteration 1 Energy -376.54168208
C        0.1543658285    0.0123089905   -0.0187329315
C       -0.5650275616   -0.7756599878   -0.9790207339
C       -1.9831051982   -0.7823063198   -0.9490862148
C       -2.6869347669   -0.0035182874    0.0163455436
C       -1.9686849927    0.7823135145    0.9656819546
C       -0.5505413669    0.7875000761    0.9623291420
C        1.6641630931   -0.0037913135   -0.0203768219
N        2.3599138353    0.0002157956    1.1727197401
N        2.3605458254   -0.0420881642   -1.2126057813
H       -0.0205043199   -1.3973044778   -1.7162474025
H       -2.5428687140   -1.4009811629   -1.6773192357
H       -3.7953338317   -0.0092009500    0.0292867933
H       -2.5174898748    1.3932743472    1.7086092208
H        0.0048783040    1.4161078119    1.6855226442
H        3.4098683278    0.0648458494    1.2228480996
H        1.8279845758   -0.0189714000    2.0792360587
H        3.4104136134   -0.1099857771   -1.2574646511
H        1.8363066112    0.0350456266   -2.1204653331
18   
Iteration 2 Energy -376.54188720
C        0.1552725774    0.0038580786   -0.0093357674
C       -0.5699180454   -0.7590988877   -0.9863408389
C       -1.9878541653   -0.7654076224   -0.9715430390
C       -2.6847057337   -0.0000581018    0.0097391382
C       -1.9743181917    0.7666038475    0.9805821440
C       -0.5564353087    0.7637959040    0.9796586125
C        1.6647400608   -0.0055708335   -0.0144568820
N        2.3728484381    0.0441048667    1.1705014819
N        2.3562800344   -0.0799185760   -1.2079725814
H       -0.0256115110   -1.3714817033   -1.7311876139
H       -2.5469116332   -1.3666375777   -1.7150012079
H       -3.7930768438   -0.0007942112    0.0178799368
H       -2.5249807012    1.3663076722    1.7314555086
H       -0.0041740630    1.3795150271    1.7159824212
H        3.4228702320    0.1142057517    1.2026798778
H        1.8539842172    0.0404979865    2.0843769432
H        3.4061644815   -0.1427143061   -1.2541126893
H        1.8285851861   -0.0394906022   -2.1158114203
18   
Iteration 3 Energy -376.54210473
C        0.1543491587   -0.0123669786   -0.0012189956
C       -0.5678768664   -0.7419473813   -1.0063721143
C       -1.9853957873   -0.7332613663   -0.9903917597
C       -2.6900814102    0.0052867404    0.0062567145
C       -1.9720784757    0.7375866972    0.9978926540
C       -0.5545272109    0.7291588173    1.0047471125
C        1.6620921654   -0.0118577468   -0.0119300670
N        2.3739404429    0.1091024721    1.1660387933
N        2.3522924679   -0.1335338988   -1.2029711387
H       -0.0279308814   -1.3411791624   -1.7651962913
H       -2.5451816773   -1.3083774957   -1.7534680248
H       -3.7986720677    0.0113523921    0.0094342739
H       -2.5207215465    1.3212527998    1.7625952288
H       -0.0039502050    1.3253198153    1.7583478540
H        3.4231722820    0.1892267516    1.1860514776
H        1.8628097414    0.1319302050    2.0835612795
H        3.4024637512   -0.1864723942   -1.2480420576
H        1.8235835666   -0.1439576532   -2.1106029497
18   
Iteration 4 Energy -376.54213379
C        0.1561783952   -0.0054522922   -0.0067930444
C       -0.5721044339   -0.7356976952   -1.0078502009
C       -1.9895070234   -0.7314248348   -0.9909547911
C       -2.6930590698    0.0038622774    0.0086968256
C       -1.9737113917    0.7338167283    1.0008952100
C       -0.5561294032    0.7288211341    1.0026580448
C        1.6637621181   -0.0061002994   -0.0168539867
N        2.3738771522    0.1178259405    1.1623855113
N        2.3598429723   -0.1391451312   -1.2037407023
H       -0.0355059353   -1.3369162586   -1.7673717539
H       -2.5491832215   -1.3069564281   -1.7538422577
H       -3.8016441495    0.0075871405    0.0147819215
H       -2.5211863241    1.3128007811    1.7699839303
H       -0.0073498677    1.3242756938    1.7580279255
H        3.4235290690    0.1877283833    1.1915320332
H        1.8596257007    0.1391724169    2.0779744511
H        3.4100504232   -0.1965268313   -1.2400686155
H        1.8383035119   -0.1504109984   -2.1153697128
18   
Iteration 5 Energy -376.54213939
C        0.1529814816    0.0015334189   -0.0106797519
C       -0.5717308833   -0.7322284417   -1.0121777659
C       -1.9888528371   -0.7319775098   -0.9935382296
C       -2.6881629102    0.0021010704    0.0100176934
C       -1.9742090127    0.7335925375    1.0050050703
C       -0.5568593908    0.7324934455    1.0034618105
C        1.6597728683   -0.0022297653   -0.0179621420
N        2.3701015416    0.1245012198    1.1612727845
N        2.3595703899   -0.1451248868   -1.2017371544
H       -0.0344543104   -1.3328935478   -1.7717412507
H       -2.5493793783   -1.3079696342   -1.7555002079
H       -3.7966765888    0.0028142871    0.0175659684
H       -2.5233087803    1.3082449146    1.7762270565
H       -0.0081964234    1.3281753966    1.7587799315
H        3.4206370726    0.1813097312    1.1858180686
H        1.8593530070    0.1450180158    2.0788210924
H        3.4096583351   -0.2062423526   -1.2340785028
H        1.8424134776   -0.1540240403   -2.1159200213
18   
Iteration 6 Energy -376.54215032
C        0.1539260847    0.0021634969   -0.0094678020
C       -0.5715116746   -0.7313537600   -1.0101647132
C       -1.9889032896   -0.7318484853   -0.9920615551
C       -2.6921235754    0.0013963409    0.0093607539
C       -1.9756271836    0.7334720734    1.0021803965
C       -0.5581037291    0.7334952534    1.0024747915
C        1.6607544177   -0.0032797172   -0.0158038627
N        2.3731421809    0.1236150896    1.1621710739
N        2.3587930683   -0.1456640326   -1.2005333638
H       -0.0334163873   -1.3306090198   -1.7702190884
H       -2.5477904122   -1.3087571781   -1.7544966692
H       -3.8006905529    0.0016351335    0.0164816818
H       -2.5246710483    1.3091207879    1.7726634081
H       -0.0105320309    1.3309383258    1.7571690758
H        3.4239794615    0.1770939163    1.1823844609
H        1.8651652434    0.1424669492    2.0813579901
H        3.4088353622   -0.2059943364   -1.2359898797
H        1.8398494822   -0.1510356206   -2.1137905196
18   
Iteration 7 Energy -376.54215314
C        0.1546805371    0.0011976596   -0.0107954532
C       -0.5712026984   -0.7331706006   -1.0103071099
C       -1.9886746463   -0.7328302886   -0.9895758879
C       -2.6919801226    0.0008683018    0.0115071088
C       -1.9741288923    0.7345712999    1.0022054420
C       -0.5565753003    0.7336138403    1.0006410198
C        1.6614903212   -0.0045069048   -0.0182878134
N        2.3692972214    0.1237377612    1.1622382714
N        2.3599688960   -0.1450745390   -1.2030251235
H       -0.0335023732   -1.3316122494   -1.7712494662
H       -2.5484009087   -1.3103852110   -1.7508814373
H       -3.8005541148    0.0007885037    0.0196993329
H       -2.5220786811    1.3117151530    1.7723575461
H       -0.0073651021    1.3318819460    1.7534817487
H        3.4199747223    0.1760442034    1.1919841729
H        1.8554183252    0.1387413626    2.0782450410
H        3.4102475498   -0.2021960475   -1.2374854241
H        1.8418425067   -0.1468456388   -2.1167755763
18   
Iteration 8 Energy -376.54215640
C        0.1538019980    0.0025292266   -0.0103935213
C       -0.5716842319   -0.7328320477   -1.0097355647
C       -1.9890858601   -0.7335807166   -0.9902681108
C       -2.6918448152    0.0004780963    0.0108269889
C       -1.9744206611    0.7347129416    1.0014629003
C       -0.5569408544    0.7351516024    1.0013775058
C        1.6606648788   -0.0036505145   -0.0175363953
N        2.3703388698    0.1253488263    1.1617643188
N        2.3587166935   -0.1463784179   -1.2022275530
H       -0.0334523718   -1.3314450922   -1.7701599921
H       -2.5484380750   -1.3116727784   -1.7514573885
H       -3.8004110373    0.0001803618    0.0191296667
H       -2.5231456842    1.3117293505    1.7711410962
H       -0.0082824030    1.3340818062    1.7541287926
H        3.4212948125    0.1730933594    1.1894085140
H        1.8584054017    0.1372413337    2.0788900310
H        3.4090567208   -0.2026776523   -1.2364234496
H        1.8408424437   -0.1461443142   -2.1161137670
18   
Iteration 9 Energy -376.54215651
C        0.1529890900    0.0034257694   -0.0109341119
C       -0.5718455969   -0.7335335980   -1.0097174659
C       -1.9891597626   -0.7340234663   -0.9896408323
C       -2.6922260398    0.0006658943    0.0107704951
C       -1.9765297394    0.7361464436    1.0016282922
C       -0.5591127958    0.7360847298    1.0001189050
C        1.6599718418   -0.0025733804   -0.0167807853
N        2.3707012917    0.1281835206    1.1616706441
N        2.3586906244   -0.1480540660   -1.2007645306
H       -0.0337436028   -1.3332437643   -1.7693837888
H       -2.5485445342   -1.3129715430   -1.7501521317
H       -3.8007797865   -0.0003224077    0.0186178885
H       -2.5254732664    1.3134338385    1.7709750593
H       -0.0106553577    1.3357033890    1.7524364130
H        3.4220832260    0.1687448472    1.1842717663
H        1.8620078976    0.1339230515    2.0806735083
H        3.4091601600   -0.2018390259   -1.2353557364
H        1.8413632656   -0.1443219299   -2.1149465834
