Title Card Required                                                     
Freq      RB3LYP                                                      6-31G               
Number of atoms                            I               23
Info1-9                                    I   N=           9
          54          54        1002           0           0         100
           6          18        -502
Full Title                                 C   N=           2
Title Card Required     
Route                                      C   N=           4
# B3LYP/6-31G OPT FREQ geom=connectivity        
Charge                                     I                0
Multiplicity                               I                1
Number of electrons                        I               58
Number of alpha electrons                  I               29
Number of beta electrons                   I               29
Number of basis functions                  I               95
Number of independent functions            I               95
Number of point charges in /Mol/           I                0
Number of translation vectors              I                0
Atomic numbers                             I   N=          23
           6           1           1           6           1           1
           6           1           1           6           1           1
           6           1           1           1           6           1
           1           6           1           1           1
Nuclear charges                            R   N=          23
  6.00000000E+00  1.00000000E+00  1.00000000E+00  6.00000000E+00  1.00000000E+00
  1.00000000E+00  6.00000000E+00  1.00000000E+00  1.00000000E+00  6.00000000E+00
  1.00000000E+00  1.00000000E+00  6.00000000E+00  1.00000000E+00  1.00000000E+00
  1.00000000E+00  6.00000000E+00  1.00000000E+00  1.00000000E+00  6.00000000E+00
  1.00000000E+00  1.00000000E+00  1.00000000E+00
Current cartesian coordinates              R   N=          69
  2.70492095E-08  9.40004968E-01  6.89732672E-06  3.72395274E-05  2.19000002E+00
 -1.66354513E+00 -3.69860426E-05  2.18987138E+00  1.66365333E+00 -2.43286410E+00
 -6.55324234E-01 -1.07853619E-04 -2.43499692E+00 -1.90568986E+00  1.66326764E+00
 -2.43508673E+00 -1.90528733E+00 -1.66378318E+00  2.43286408E+00 -6.55324319E-01
  1.64909576E-05  2.43509482E+00 -1.90538342E+00  1.66362040E+00  2.43498863E+00
 -1.90559389E+00 -1.66343045E+00  4.86663481E+00  9.39462104E-01 -1.65557365E-04
  4.86368545E+00  2.18813315E+00 -1.66252324E+00  4.86362918E+00  2.18862781E+00
  1.66182239E+00  7.28550153E+00 -6.69068607E-01  1.17256975E-04  7.36643286E+00
 -1.89165911E+00 -1.67331927E+00  8.98485473E+00  5.16561292E-01 -1.04840615E-04
  7.36644272E+00 -1.89105183E+00  1.67399545E+00 -4.86663482E+00  9.39462137E-01
  1.53024281E-04 -4.86368487E+00  2.18861333E+00 -1.66184545E+00 -4.86362986E+00
  2.18814771E+00  1.66250019E+00 -7.28550153E+00 -6.69068635E-01 -3.16404549E-05
 -7.36641027E+00 -1.89158741E+00  1.67345768E+00 -8.98485475E+00  5.16561237E-01
  1.59841658E-04 -7.36646525E+00 -1.89112359E+00 -1.67385707E+00
Number of symbols in /Mol/                 I                0
Force Field                                I                0
Atom Types                                 C   N=          23
                                                            
                                                            
                                                            
                                                            
                                    
Int Atom Types                             I   N=          23
           0           0           0           0           0           0
           0           0           0           0           0           0
           0           0           0           0           0           0
           0           0           0           0           0
MM charges                                 R   N=          23
  0.00000000E+00  0.00000000E+00  0.00000000E+00  0.00000000E+00  0.00000000E+00
  0.00000000E+00  0.00000000E+00  0.00000000E+00  0.00000000E+00  0.00000000E+00
  0.00000000E+00  0.00000000E+00  0.00000000E+00  0.00000000E+00  0.00000000E+00
  0.00000000E+00  0.00000000E+00  0.00000000E+00  0.00000000E+00  0.00000000E+00
  0.00000000E+00  0.00000000E+00  0.00000000E+00
Integer atomic weights                     I   N=          23
          12           1           1          12           1           1
          12           1           1          12           1           1
          12           1           1           1          12           1
           1          12           1           1           1
Real atomic weights                        R   N=          23
  1.20000000E+01  1.00782504E+00  1.00782504E+00  1.20000000E+01  1.00782504E+00
  1.00782504E+00  1.20000000E+01  1.00782504E+00  1.00782504E+00  1.20000000E+01
  1.00782504E+00  1.00782504E+00  1.20000000E+01  1.00782504E+00  1.00782504E+00
  1.00782504E+00  1.20000000E+01  1.00782504E+00  1.00782504E+00  1.20000000E+01
  1.00782504E+00  1.00782504E+00  1.00782504E+00
Atom fragment info                         I   N=          23
           0           0           0           0           0           0
           0           0           0           0           0           0
           0           0           0           0           0           0
           0           0           0           0           0
Atom residue num                           I   N=          23
           0           0           0           0           0           0
           0           0           0           0           0           0
           0           0           0           0           0           0
           0           0           0           0           0
Nuclear spins                              I   N=          23
           0           1           1           0           1           1
           0           1           1           0           1           1
           0           1           1           1           0           1
           1           0           1           1           1
Nuclear ZEff                               R   N=          23
 -3.60000000E+00 -1.00000000E+00 -1.00000000E+00 -3.60000000E+00 -1.00000000E+00
 -1.00000000E+00 -3.60000000E+00 -1.00000000E+00 -1.00000000E+00 -3.60000000E+00
 -1.00000000E+00 -1.00000000E+00 -3.60000000E+00 -1.00000000E+00 -1.00000000E+00
 -1.00000000E+00 -3.60000000E+00 -1.00000000E+00 -1.00000000E+00 -3.60000000E+00
 -1.00000000E+00 -1.00000000E+00 -1.00000000E+00
Nuclear ZNuc                               R   N=          23
  6.00000000E+00  1.00000000E+00  1.00000000E+00  6.00000000E+00  1.00000000E+00
  1.00000000E+00  6.00000000E+00  1.00000000E+00  1.00000000E+00  6.00000000E+00
  1.00000000E+00  1.00000000E+00  6.00000000E+00  1.00000000E+00  1.00000000E+00
  1.00000000E+00  6.00000000E+00  1.00000000E+00  1.00000000E+00  6.00000000E+00
  1.00000000E+00  1.00000000E+00  1.00000000E+00
Nuclear QMom                               R   N=          23
  0.00000000E+00  0.00000000E+00  0.00000000E+00  0.00000000E+00  0.00000000E+00
  0.00000000E+00  0.00000000E+00  0.00000000E+00  0.00000000E+00  0.00000000E+00
  0.00000000E+00  0.00000000E+00  0.00000000E+00  0.00000000E+00  0.00000000E+00
  0.00000000E+00  0.00000000E+00  0.00000000E+00  0.00000000E+00  0.00000000E+00
  0.00000000E+00  0.00000000E+00  0.00000000E+00
Nuclear GFac                               R   N=          23
  0.00000000E+00  2.79284600E+00  2.79284600E+00  0.00000000E+00  2.79284600E+00
  2.79284600E+00  0.00000000E+00  2.79284600E+00  2.79284600E+00  0.00000000E+00
  2.79284600E+00  2.79284600E+00  0.00000000E+00  2.79284600E+00  2.79284600E+00
  2.79284600E+00  0.00000000E+00  2.79284600E+00  2.79284600E+00  0.00000000E+00
  2.79284600E+00  2.79284600E+00  2.79284600E+00
MicOpt                                     I   N=          23
          -1          -1          -1          -1          -1          -1
          -1          -1          -1          -1          -1          -1
          -1          -1          -1          -1          -1          -1
          -1          -1          -1          -1          -1
Number of residues                         I                0
Number of secondary structures             I                0
Redundant internal dimensions              I   N=           4
         118          22          42          54
Redundant internal coordinate indices      I   N=         472
           1           2           0           0           1           3
           0           0           1           4           0           0
           1           7           0           0           4           5
           0           0           4           6           0           0
           4          17           0           0           7           8
           0           0           7           9           0           0
           7          10           0           0          10          11
           0           0          10          12           0           0
          10          13           0           0          13          14
           0           0          13          15           0           0
          13          16           0           0          17          18
           0           0          17          19           0           0
          17          20           0           0          20          21
           0           0          20          22           0           0
          20          23           0           0           2           1
           3           0           2           1           4           0
           2           1           7           0           3           1
           4           0           3           1           7           0
           4           1           7           0           1           4
           5           0           1           4           6           0
           1           4          17           0           5           4
           6           0           5           4          17           0
           6           4          17           0           1           7
           8           0           1           7           9           0
           1           7          10           0           8           7
           9           0           8           7          10           0
           9           7          10           0           7          10
          11           0           7          10          12           0
           7          10          13           0          11          10
          12           0          11          10          13           0
          12          10          13           0          10          13
          14           0          10          13          15           0
          10          13          16           0          14          13
          15           0          14          13          16           0
          15          13          16           0           4          17
          18           0           4          17          19           0
           4          17          20           0          18          17
          19           0          18          17          20           0
          19          17          20           0          17          20
          21           0          17          20          22           0
          17          20          23           0          21          20
          22           0          21          20          23           0
          22          20          23           0           2           1
           4           5           2           1           4           6
           2           1           4          17           3           1
           4           5           3           1           4           6
           3           1           4          17           7           1
           4           5           7           1           4           6
           7           1           4          17           2           1
           7           8           2           1           7           9
           2           1           7          10           3           1
           7           8           3           1           7           9
           3           1           7          10           4           1
           7           8           4           1           7           9
           4           1           7          10           1           4
          17          18           1           4          17          19
           1           4          17          20           5           4
          17          18           5           4          17          19
           5           4          17          20           6           4
          17          18           6           4          17          19
           6           4          17          20           1           7
          10          11           1           7          10          12
           1           7          10          13           8           7
          10          11           8           7          10          12
           8           7          10          13           9           7
          10          11           9           7          10          12
           9           7          10          13           7          10
          13          14           7          10          13          15
           7          10          13          16          11          10
          13          14          11          10          13          15
          11          10          13          16          12          10
          13          14          12          10          13          15
          12          10          13          16           4          17
          20          21           4          17          20          22
           4          17          20          23          18          17
          20          21          18          17          20          22
          18          17          20          23          19          17
          20          21          19          17          20          22
          19          17          20          23
Redundant internal coordinates             R   N=         118
  2.08083949E+00  2.08083770E+00  2.90927880E+00  2.90927879E+00  2.08092210E+00
  2.08092005E+00  2.90973943E+00  2.08092064E+00  2.08092149E+00  2.90973945E+00
  2.07909143E+00  2.07909306E+00  2.90487304E+00  2.07404610E+00  2.07208098E+00
  2.07404500E+00  2.07909267E+00  2.07909181E+00  2.90487305E+00  2.07404554E+00
  2.07208098E+00  2.07404556E+00  1.85287474E+00  1.90645572E+00  1.90646025E+00
  1.90645532E+00  1.90645066E+00  1.98079138E+00  1.90743738E+00  1.90743039E+00
  1.98111827E+00  1.85265114E+00  1.90540522E+00  1.90540686E+00  1.90742996E+00
  1.90743778E+00  1.98111822E+00  1.85265117E+00  1.90540716E+00  1.90540499E+00
  1.90501957E+00  1.90502747E+00  1.97467549E+00  1.85282634E+00  1.91115390E+00
  1.91115215E+00  1.93780504E+00  1.94557208E+00  1.93780412E+00  1.88094779E+00
  1.87794969E+00  1.88094959E+00  1.90502427E+00  1.90502279E+00  1.97467548E+00
  1.85282634E+00  1.91115312E+00  1.91115291E+00  1.93780413E+00  1.94557208E+00
  1.93780502E+00  1.88094898E+00  1.87794970E+00  1.88094840E+00 -3.14127865E+00
  1.12143606E+00 -1.00991979E+00 -1.12162919E+00  3.14108552E+00  1.00972967E+00
  1.01013241E+00 -1.01033819E+00  3.14149127E+00  3.14106556E+00 -1.12164913E+00
  1.00970969E+00  1.12141617E+00 -3.14129852E+00 -1.00993970E+00 -1.01034802E+00
  1.01012260E+00  3.14148142E+00  1.00897718E+00 -1.00902938E+00  3.14156722E+00
  3.14146387E+00  1.12345731E+00 -1.00913140E+00 -1.12350171E+00 -3.14150827E+00
  1.00908833E+00 -1.00910681E+00  1.00889973E+00  3.14149085E+00 -3.14158533E+00
 -1.12357878E+00  1.00901234E+00  1.12338018E+00  3.14138672E+00 -1.00920746E+00
  1.04416377E+00  3.14154882E+00 -1.04424977E+00 -1.08499314E+00  1.01239191E+00
  3.10977863E+00 -3.10985574E+00 -1.01247069E+00  1.08491603E+00  1.04420706E+00
 -3.14159229E+00 -1.04420648E+00 -3.10981587E+00 -1.01242991E+00  1.08495590E+00
 -1.08495328E+00  1.01243268E+00  3.10981849E+00
ZRed-IntVec                                I   N=         118
           0           0           0           0           0           0
           0           0           0           0           0           0
           0           0           0           0           0           0
           0           0           0           0           0           0
           0           0           0           0           0           0
           0           0           0           0           0           0
           0           0           0           0           0           0
           0           0           0           0           0           0
           0           0           0           0           0           0
           0           0           0           0           0           0
           0           0           0           0           0           0
           0           0           0           0           0           0
           0           0           0           0           0           0
           0           0           0           0           0           0
           0           0           0           0           0           0
           0           0           0           0           0           0
           0           0           0           0           0           0
           0           0           0           0           0           0
           0           0           0           0           0           0
           0           0           0           0
ZRed-FPVec                                 R   N=         118
  0.00000000E+00  0.00000000E+00  0.00000000E+00  0.00000000E+00  0.00000000E+00
  0.00000000E+00  0.00000000E+00  0.00000000E+00  0.00000000E+00  0.00000000E+00
  0.00000000E+00  0.00000000E+00  0.00000000E+00  0.00000000E+00  0.00000000E+00
  0.00000000E+00  0.00000000E+00  0.00000000E+00  0.00000000E+00  0.00000000E+00
  0.00000000E+00  0.00000000E+00  0.00000000E+00  0.00000000E+00  0.00000000E+00
  0.00000000E+00  0.00000000E+00  0.00000000E+00  0.00000000E+00  0.00000000E+00
  0.00000000E+00  0.00000000E+00  0.00000000E+00  0.00000000E+00  0.00000000E+00
  0.00000000E+00  0.00000000E+00  0.00000000E+00  0.00000000E+00  0.00000000E+00
  0.00000000E+00  0.00000000E+00  0.00000000E+00  0.00000000E+00  0.00000000E+00
  0.00000000E+00  0.00000000E+00  0.00000000E+00  0.00000000E+00  0.00000000E+00
  0.00000000E+00  0.00000000E+00  0.00000000E+00  0.00000000E+00  0.00000000E+00
  0.00000000E+00  0.00000000E+00  0.00000000E+00  0.00000000E+00  0.00000000E+00
  0.00000000E+00  0.00000000E+00  0.00000000E+00  0.00000000E+00  0.00000000E+00
  0.00000000E+00  0.00000000E+00  0.00000000E+00  0.00000000E+00  0.00000000E+00
  0.00000000E+00  0.00000000E+00  0.00000000E+00  0.00000000E+00  0.00000000E+00
  0.00000000E+00  0.00000000E+00  0.00000000E+00  0.00000000E+00  0.00000000E+00
  0.00000000E+00  0.00000000E+00  0.00000000E+00  0.00000000E+00  0.00000000E+00
  0.00000000E+00  0.00000000E+00  0.00000000E+00  0.00000000E+00  0.00000000E+00
  0.00000000E+00  0.00000000E+00  0.00000000E+00  0.00000000E+00  0.00000000E+00
  0.00000000E+00  0.00000000E+00  0.00000000E+00  0.00000000E+00  0.00000000E+00
  0.00000000E+00  0.00000000E+00  0.00000000E+00  0.00000000E+00  0.00000000E+00
  0.00000000E+00  0.00000000E+00  0.00000000E+00  0.00000000E+00  0.00000000E+00
  0.00000000E+00  0.00000000E+00  0.00000000E+00  0.00000000E+00  0.00000000E+00
  0.00000000E+00  0.00000000E+00  0.00000000E+00
ZRed-Constraint1                           R   N=         118
  2.08083949E+00  2.08083770E+00  2.90927880E+00  2.90927879E+00  2.08092210E+00
  2.08092005E+00  2.90973943E+00  2.08092064E+00  2.08092149E+00  2.90973945E+00
  2.07909143E+00  2.07909306E+00  2.90487304E+00  2.07404610E+00  2.07208098E+00
  2.07404500E+00  2.07909267E+00  2.07909181E+00  2.90487305E+00  2.07404554E+00
  2.07208098E+00  2.07404556E+00  1.85287474E+00  1.90645572E+00  1.90646025E+00
  1.90645532E+00  1.90645066E+00  1.98079138E+00  1.90743738E+00  1.90743039E+00
  1.98111827E+00  1.85265114E+00  1.90540522E+00  1.90540686E+00  1.90742996E+00
  1.90743778E+00  1.98111822E+00  1.85265117E+00  1.90540716E+00  1.90540499E+00
  1.90501957E+00  1.90502747E+00  1.97467549E+00  1.85282634E+00  1.91115390E+00
  1.91115215E+00  1.93780504E+00  1.94557208E+00  1.93780412E+00  1.88094779E+00
  1.87794969E+00  1.88094959E+00  1.90502427E+00  1.90502279E+00  1.97467548E+00
  1.85282634E+00  1.91115312E+00  1.91115291E+00  1.93780413E+00  1.94557208E+00
  1.93780502E+00  1.88094898E+00  1.87794970E+00  1.88094840E+00 -3.14127865E+00
  1.12143606E+00 -1.00991979E+00 -1.12162919E+00  3.14108552E+00  1.00972967E+00
  1.01013241E+00 -1.01033819E+00  3.14149127E+00  3.14106556E+00 -1.12164913E+00
  1.00970969E+00  1.12141617E+00 -3.14129852E+00 -1.00993970E+00 -1.01034802E+00
  1.01012260E+00  3.14148142E+00  1.00897718E+00 -1.00902938E+00  3.14156722E+00
  3.14146387E+00  1.12345731E+00 -1.00913140E+00 -1.12350171E+00 -3.14150827E+00
  1.00908833E+00 -1.00910681E+00  1.00889973E+00  3.14149085E+00 -3.14158533E+00
 -1.12357878E+00  1.00901234E+00  1.12338018E+00  3.14138672E+00 -1.00920746E+00
  1.04416377E+00  3.14154882E+00 -1.04424977E+00 -1.08499314E+00  1.01239191E+00
  3.10977863E+00 -3.10985574E+00 -1.01247069E+00  1.08491603E+00  1.04420706E+00
 -3.14159229E+00 -1.04420648E+00 -3.10981587E+00 -1.01242991E+00  1.08495590E+00
 -1.08495328E+00  1.01243268E+00  3.10981849E+00
ZRed-Constraint2                           R   N=         118
  2.02200695E+00  2.02200695E+00  2.91017823E+00  2.91017823E+00  2.02200695E+00
  2.02200696E+00  2.91017823E+00  2.02200694E+00  2.02200696E+00  2.91017823E+00
  2.02200696E+00  2.02200696E+00  2.91017822E+00  2.02200695E+00  2.02200696E+00
  2.02200696E+00  2.02200696E+00  2.02200696E+00  2.91017823E+00  2.02200696E+00
  2.02200695E+00  2.02200694E+00  1.91063323E+00  1.91063324E+00  1.91063324E+00
  1.91063323E+00  1.91063324E+00  1.91063324E+00  1.91063292E+00  1.91063342E+00
  1.91063293E+00  1.91063320E+00  1.91063377E+00  1.91063319E+00  1.91063292E+00
  1.91063342E+00  1.91063292E+00  1.91063320E+00  1.91063377E+00  1.91063319E+00
  1.91063292E+00  1.91063342E+00  1.91063292E+00  1.91063319E+00  1.91063377E+00
  1.91063320E+00  1.91063293E+00  1.91063293E+00  1.91063343E+00  1.91063376E+00
  1.91063319E+00  1.91063318E+00  1.91063292E+00  1.91063341E+00  1.91063293E+00
  1.91063319E+00  1.91063377E+00  1.91063320E+00  1.91063292E+00  1.91063292E+00
  1.91063343E+00  1.91063376E+00  1.91063319E+00  1.91063320E+00 -3.14159199E+00
  1.04719834E+00 -1.04719663E+00 -1.04719690E+00 -3.14159187E+00  1.04719847E+00
  1.04719821E+00 -1.04719677E+00 -3.14159173E+00  3.13919357E+00 -1.04959676E+00
  1.04479820E+00  1.04479846E+00  3.13919344E+00 -1.04959690E+00 -1.04959664E+00
  1.04479834E+00  3.13919331E+00  1.04732127E+00 -1.04707369E+00 -3.14146867E+00
 -3.14146919E+00  1.04732115E+00 -1.04707382E+00 -1.04707384E+00 -3.14146880E+00
  1.04732153E+00 -1.04774930E+00  1.04664567E+00  3.14104065E+00  3.14104117E+00
 -1.04774918E+00  1.04664580E+00  1.04664581E+00  3.14104077E+00 -1.04774955E+00
  1.04717285E+00  3.14156822E+00 -1.04722212E+00 -1.04722199E+00  1.04717338E+00
  3.14156834E+00  3.14156797E+00 -1.04722197E+00  1.04717300E+00  1.04719198E+00
  3.14158734E+00 -1.04720299E+00  3.14158683E+00 -1.04720312E+00  1.04719186E+00
 -1.04720313E+00  1.04719223E+00  3.14158721E+00
SymInf integers                            I   N=          26
           1           1           1           1           1           0
           0           0           0           0           0           0
           0           0           0           0           0           0
           0           0           0           0           0           0
           0           0
RotTr to input orientation                 R   N=          12
  8.16489214E-01 -5.77359823E-01 -9.98911897E-04  5.77360003E-01  8.16489688E-01
 -1.26750245E-04  8.88781762E-04 -4.73241568E-04  9.99999493E-01 -6.90081403E+00
  3.05054960E+00  1.61573586E-04
Number of contracted shells                I               53
Number of primitive shells                 I              134
Pure/Cartesian d shells                    I                1
Pure/Cartesian f shells                    I                0
Highest angular momentum                   I                1
Largest degree of contraction              I                6
Shell types                                I   N=          53
           0          -1          -1           0           0           0
           0           0          -1          -1           0           0
           0           0           0          -1          -1           0
           0           0           0           0          -1          -1
           0           0           0           0           0          -1
          -1           0           0           0           0           0
           0           0          -1          -1           0           0
           0           0           0          -1          -1           0
           0           0           0           0           0
Number of primitives per shell             I   N=          53
           6           3           1           3           1           3
           1           6           3           1           3           1
           3           1           6           3           1           3
           1           3           1           6           3           1
           3           1           3           1           6           3
           1           3           1           3           1           3
           1           6           3           1           3           1
           3           1           6           3           1           3
           1           3           1           3           1
Shell to atom map                          I   N=          53
           1           1           1           2           2           3
           3           4           4           4           5           5
           6           6           7           7           7           8
           8           9           9          10          10          10
          11          11          12          12          13          13
          13          14          14          15          15          16
          16          17          17          17          18          18
          19          19          20          20          20          21
          21          22          22          23          23
Primitive exponents                        R   N=         134
  3.04752488E+03  4.57369518E+02  1.03948685E+02  2.92101553E+01  9.28666296E+00
  3.16392696E+00  7.86827235E+00  1.88128854E+00  5.44249258E-01  1.68714478E-01
  1.87311370E+01  2.82539436E+00  6.40121692E-01  1.61277759E-01  1.87311370E+01
  2.82539436E+00  6.40121692E-01  1.61277759E-01  3.04752488E+03  4.57369518E+02
  1.03948685E+02  2.92101553E+01  9.28666296E+00  3.16392696E+00  7.86827235E+00
  1.88128854E+00  5.44249258E-01  1.68714478E-01  1.87311370E+01  2.82539436E+00
  6.40121692E-01  1.61277759E-01  1.87311370E+01  2.82539436E+00  6.40121692E-01
  1.61277759E-01  3.04752488E+03  4.57369518E+02  1.03948685E+02  2.92101553E+01
  9.28666296E+00  3.16392696E+00  7.86827235E+00  1.88128854E+00  5.44249258E-01
  1.68714478E-01  1.87311370E+01  2.82539436E+00  6.40121692E-01  1.61277759E-01
  1.87311370E+01  2.82539436E+00  6.40121692E-01  1.61277759E-01  3.04752488E+03
  4.57369518E+02  1.03948685E+02  2.92101553E+01  9.28666296E+00  3.16392696E+00
  7.86827235E+00  1.88128854E+00  5.44249258E-01  1.68714478E-01  1.87311370E+01
  2.82539436E+00  6.40121692E-01  1.61277759E-01  1.87311370E+01  2.82539436E+00
  6.40121692E-01  1.61277759E-01  3.04752488E+03  4.57369518E+02  1.03948685E+02
  2.92101553E+01  9.28666296E+00  3.16392696E+00  7.86827235E+00  1.88128854E+00
  5.44249258E-01  1.68714478E-01  1.87311370E+01  2.82539436E+00  6.40121692E-01
  1.61277759E-01  1.87311370E+01  2.82539436E+00  6.40121692E-01  1.61277759E-01
  1.87311370E+01  2.82539436E+00  6.40121692E-01  1.61277759E-01  3.04752488E+03
  4.57369518E+02  1.03948685E+02  2.92101553E+01  9.28666296E+00  3.16392696E+00
  7.86827235E+00  1.88128854E+00  5.44249258E-01  1.68714478E-01  1.87311370E+01
  2.82539436E+00  6.40121692E-01  1.61277759E-01  1.87311370E+01  2.82539436E+00
  6.40121692E-01  1.61277759E-01  3.04752488E+03  4.57369518E+02  1.03948685E+02
  2.92101553E+01  9.28666296E+00  3.16392696E+00  7.86827235E+00  1.88128854E+00
  5.44249258E-01  1.68714478E-01  1.87311370E+01  2.82539436E+00  6.40121692E-01
  1.61277759E-01  1.87311370E+01  2.82539436E+00  6.40121692E-01  1.61277759E-01
  1.87311370E+01  2.82539436E+00  6.40121692E-01  1.61277759E-01
Contraction coefficients                   R   N=         134
  1.83473713E-03  1.40373228E-02  6.88426223E-02  2.32184443E-01  4.67941348E-01
  3.62311985E-01 -1.19332420E-01 -1.60854152E-01  1.14345644E+00  1.00000000E+00
  3.34946043E-02  2.34726953E-01  8.13757326E-01  1.00000000E+00  3.34946043E-02
  2.34726953E-01  8.13757326E-01  1.00000000E+00  1.83473713E-03  1.40373228E-02
  6.88426223E-02  2.32184443E-01  4.67941348E-01  3.62311985E-01 -1.19332420E-01
 -1.60854152E-01  1.14345644E+00  1.00000000E+00  3.34946043E-02  2.34726953E-01
  8.13757326E-01  1.00000000E+00  3.34946043E-02  2.34726953E-01  8.13757326E-01
  1.00000000E+00  1.83473713E-03  1.40373228E-02  6.88426223E-02  2.32184443E-01
  4.67941348E-01  3.62311985E-01 -1.19332420E-01 -1.60854152E-01  1.14345644E+00
  1.00000000E+00  3.34946043E-02  2.34726953E-01  8.13757326E-01  1.00000000E+00
  3.34946043E-02  2.34726953E-01  8.13757326E-01  1.00000000E+00  1.83473713E-03