
    -----------------------------------------------------------------------
          Psi4: An Open-Source Ab Initio Electronic Structure Package
                               Psi4 1.3.2 release

                         Git: Rev {HEAD} ecbda83 


    R. M. Parrish, L. A. Burns, D. G. A. Smith, A. C. Simmonett,
    A. E. DePrince III, E. G. Hohenstein, U. Bozkaya, A. Yu. Sokolov,
    R. Di Remigio, R. M. Richard, J. F. Gonthier, A. M. James,
    H. R. McAlexander, A. Kumar, M. Saitow, X. Wang, B. P. Pritchard,
    P. Verma, H. F. Schaefer III, K. Patkowski, R. A. King, E. F. Valeev,
    F. A. Evangelista, J. M. Turney, T. D. Crawford, and C. D. Sherrill,
    J. Chem. Theory Comput. 13(7) pp 3185--3197 (2017).
    (doi: 10.1021/acs.jctc.7b00174)


                         Additional Contributions by
    P. Kraus, H. Kruse, M. H. Lechner, M. C. Schieber, R. A. Shaw,
    A. Alenaizan, R. Galvelis, Z. L. Glick, S. Lehtola, and J. P. Misiewicz

    -----------------------------------------------------------------------


    Psi4 started on: Friday, 14 May 2021 10:07AM

    Process ID: 18248
    Host:       aaojha
    PSIDATADIR: /home/aaojha/anaconda3/envs/torsiondrive/share/psi4
    Memory:     500.0 MiB
    Threads:    1
    
  ==> Input File <==

--------------------------------------------------------------------------
memory 50 GB
molecule {
1 1
C           0.1546859    -0.0039090    -0.0072895
C          -0.5841631    -0.5339481    -1.1236981
C          -2.0007353    -0.5273639    -1.1101948
C          -2.7053679     0.0046616     0.0097199
C          -1.9843916     0.5324263     1.1212082
C          -0.5677446     0.5305808     1.1177248
C           1.6642591    -0.0080686    -0.0163675
N           2.3924048     0.4966630     1.0467312
N           2.3766485    -0.5181202    -1.0875111
H          -0.0681446    -0.9544852    -2.0082421
H          -2.5580508    -0.9378556    -1.9746248
H          -3.8140358     0.0079558     0.0162814
H          -2.5289279     0.9461758     1.9922063
H          -0.0387439     0.9477953     1.9961460
H           3.4439441     0.4992175     1.0526321
H           1.9045749     0.8935298     1.8860461
H           3.4280178    -0.5217108    -1.1066453
H           1.8771782    -0.9085484    -1.9230005
}
set {
basis STO-3G
}
gradient('BLYP')
--------------------------------------------------------------------------

  Memory set to  46.566 GiB by Python driver.
gradient() will perform analytic gradient computation.

*** tstart() called on aaojha
*** at Fri May 14 10:07:48 2021

   => Loading Basis Set <=

    Name: STO-3G
    Role: ORBITAL
    Keyword: BASIS
    atoms 1-7   entry C          line    61 file /home/aaojha/anaconda3/envs/torsiondrive/share/psi4/basis/sto-3g.gbs 
    atoms 8-9   entry N          line    71 file /home/aaojha/anaconda3/envs/torsiondrive/share/psi4/basis/sto-3g.gbs 
    atoms 10-18 entry H          line    19 file /home/aaojha/anaconda3/envs/torsiondrive/share/psi4/basis/sto-3g.gbs 


         ---------------------------------------------------------
                                   SCF
               by Justin Turney, Rob Parrish, Andy Simmonett
                          and Daniel G. A. Smith
                              RKS Reference
                        1 Threads,  47683 MiB Core
         ---------------------------------------------------------

  ==> Geometry <==

    Molecular point group: c1
    Full point group: C1

    Geometry (in Angstrom), charge = 1, multiplicity = 1:

       Center              X                  Y                   Z               Mass       
    ------------   -----------------  -----------------  -----------------  -----------------
         C            0.186412873042    -0.000637831441    -0.001115305970    12.000000000000
         C           -0.552436126958    -0.530676931441    -1.117523905970    12.000000000000
         C           -1.969008326958    -0.524092731441    -1.104020605970    12.000000000000
         C           -2.673640926958     0.007932768559     0.015894094030    12.000000000000
         C           -1.952664626958     0.535697468559     1.127382394030    12.000000000000
         C           -0.536017626958     0.533851968559     1.123898994030    12.000000000000
         C            1.695986073042    -0.004797431441    -0.010193305970    12.000000000000
         N            2.424131773042     0.499934168559     1.052905394030    14.003074004430
         N            2.408375473042    -0.514849031441    -1.081336905970    14.003074004430
         H           -0.036417626958    -0.951214031441    -2.002067905970     1.007825032230
         H           -2.526323826958    -0.934584431441    -1.968450605970     1.007825032230
         H           -3.782308826958     0.011226968559     0.022455594030     1.007825032230
         H           -2.497200926958     0.949446968559     1.998380494030     1.007825032230
         H           -0.007016926958     0.951066468559     2.002320194030     1.007825032230
         H            3.475671073042     0.502488668559     1.058806294030     1.007825032230
         H            1.936301873042     0.896800968559     1.892220294030     1.007825032230
         H            3.459744773042    -0.518439631441    -1.100471105970     1.007825032230
         H            1.908905173042    -0.905277231441    -1.916826305970     1.007825032230

  Running in c1 symmetry.

  Rotational constants: A =      0.11698  B =      0.03810  C =      0.02874 [cm^-1]
  Rotational constants: A =   3506.90525  B =   1142.22666  C =    861.59772 [MHz]
  Nuclear repulsion =  406.127717314481117

  Charge       = 1
  Multiplicity = 1
  Electrons    = 64
  Nalpha       = 32
  Nbeta        = 32

  ==> Algorithm <==

  SCF Algorithm Type is DF.
  DIIS enabled.
  MOM disabled.
  Fractional occupation disabled.
  Guess Type is SAD.
  Energy threshold   = 1.00e-08
  Density threshold  = 1.00e-08
  Integral threshold = 0.00e+00

  ==> Primary Basis <==

  Basis Set: STO-3G
    Blend: STO-3G
    Number of shells: 36
    Number of basis function: 54
    Number of Cartesian functions: 54
    Spherical Harmonics?: true
    Max angular momentum: 1

  ==> DFT Potential <==

   => Composite Functional: BLYP <= 

    BLYP GGA Exchange-Correlation Functional

    P.J. Stephens et. al., J. Phys. Chem., 98, 11623-11627, 1994
    B. Miehlich et. al., Chem. Phys. Lett., 157(3), 200-206 1989


    Deriv               =              1
    GGA                 =           TRUE
    Meta                =          FALSE

    Exchange Hybrid     =          FALSE
    MP2 Hybrid          =          FALSE

   => Exchange Functionals <=

    1.0000     XC_GGA_X_B88

   => Correlation Functionals <=

    1.0000     XC_GGA_C_LYP

   => Molecular Quadrature <=

    Radial Scheme          =       TREUTLER
    Pruning Scheme         =           FLAT
    Nuclear Scheme         =       TREUTLER

    BS radius alpha        =              1
    Pruning alpha          =              1
    Radial Points          =             75
    Spherical Points       =            302
    Total Points           =         394937
    Total Blocks           =           2938
    Max Points             =            256
    Max Functions          =             51

   => Loading Basis Set <=

    Name: (STO-3G AUX)
    Role: JKFIT
    Keyword: DF_BASIS_SCF
    atoms 1-7   entry C          line   203 file /home/aaojha/anaconda3/envs/torsiondrive/share/psi4/basis/def2-svp-jkfit.gbs 
    atoms 8-9   entry N          line   263 file /home/aaojha/anaconda3/envs/torsiondrive/share/psi4/basis/def2-svp-jkfit.gbs 
    atoms 10-18 entry H          line    23 file /home/aaojha/anaconda3/envs/torsiondrive/share/psi4/basis/def2-svp-jkfit.gbs 

  ==> Pre-Iterations <==

   -------------------------------------------------------
    Irrep   Nso     Nmo     Nalpha   Nbeta   Ndocc  Nsocc
   -------------------------------------------------------
     A         54      54       0       0       0       0
   -------------------------------------------------------
    Total      54      54      32      32      32       0
   -------------------------------------------------------

  ==> Integral Setup <==

  DFHelper Memory: AOs need 0.024 GiB; user supplied 34.426 GiB. Using in-core AOs.

  ==> MemDFJK: Density-Fitted J/K Matrices <==

    J tasked:                   Yes
    K tasked:                    No
    wK tasked:                   No
    OpenMP threads:               1
    Memory [MiB]:             35251
    Algorithm:                 Core
    Schwarz Cutoff:           1E-12
    Mask sparsity (%):       1.8519
    Fitting Condition:        1E-10

   => Auxiliary Basis Set <=

  Basis Set: (STO-3G AUX)
    Blend: DEF2-SVP-JKFIT
    Number of shells: 279
    Number of basis function: 841
    Number of Cartesian functions: 989
    Spherical Harmonics?: true
    Max angular momentum: 4

  Cached 100.0% of DFT collocation blocks in 0.499 [GiB].

  Minimum eigenvalue in the overlap matrix is 1.8839177901E-01.
  Using Symmetric Orthogonalization.

  SCF Guess: Superposition of Atomic Densities via on-the-fly atomic UHF.

  ==> Iterations <==

                           Total Energy        Delta E     RMS |[F,P]|

   @DF-RKS iter SAD:  -373.14484172827940   -3.73145e+02   0.00000e+00 
   @DF-RKS iter   1:  -376.48648632169864   -3.34164e+00   5.06967e-03 DIIS
   @DF-RKS iter   2:  -376.34491896092231    1.41567e-01   9.85819e-03 DIIS
   @DF-RKS iter   3:  -376.53443219933820   -1.89513e-01   1.74185e-03 DIIS
   @DF-RKS iter   4:  -376.53978517048495   -5.35297e-03   6.83572e-04 DIIS
   @DF-RKS iter   5:  -376.54081105193234   -1.02588e-03   1.55499e-04 DIIS
   @DF-RKS iter   6:  -376.54085871116263   -4.76592e-05   4.33179e-05 DIIS
   @DF-RKS iter   7:  -376.54086215909547   -3.44793e-06   1.05163e-05 DIIS
   @DF-RKS iter   8:  -376.54086239904757   -2.39952e-07   2.75507e-06 DIIS
   @DF-RKS iter   9:  -376.54086241391065   -1.48631e-08   6.51678e-07 DIIS
   @DF-RKS iter  10:  -376.54086241496520   -1.05456e-09   1.75099e-07 DIIS
   @DF-RKS iter  11:  -376.54086241502091   -5.57066e-11   6.86201e-08 DIIS
   @DF-RKS iter  12:  -376.54086241502546   -4.54747e-12   5.04548e-08 DIIS
   @DF-RKS iter  13:  -376.54086241503046   -5.00222e-12   7.07915e-09 DIIS
  Energy and wave function converged.


  ==> Post-Iterations <==

    Orbital Energies [Eh]
    ---------------------

    Doubly Occupied:                                                      

       1A    -14.119438     2A    -14.119360     3A    -10.092104  
       4A     -9.956798     5A     -9.930403     6A     -9.930352  
       7A     -9.917646     8A     -9.914313     9A     -9.914133  
      10A     -1.040810    11A     -0.960485    12A     -0.883120  
      13A     -0.806755    14A     -0.784377    15A     -0.738968  
      16A     -0.678363    17A     -0.669196    18A     -0.636948  
      19A     -0.631614    20A     -0.592428    21A     -0.571294  
      22A     -0.540650    23A     -0.503021    24A     -0.500028  
      25A     -0.489234    26A     -0.486155    27A     -0.421232  
      28A     -0.417931    29A     -0.413538    30A     -0.360148  
      31A     -0.326313    32A     -0.321460  

    Virtual:                                                              

      33A     -0.190361    34A     -0.107871    35A     -0.085397  
      36A      0.005965    37A      0.033297    38A      0.037533  
      39A      0.062223    40A      0.096392    41A      0.124521  
      42A      0.152552    43A      0.182905    44A      0.192094  
      45A      0.219506    46A      0.228000    47A      0.260992  
      48A      0.273806    49A      0.346249    50A      0.351673  
      51A      0.363584    52A      0.370692    53A      0.490392  
      54A      0.532055  

    Final Occupation by Irrep:
              A 
    DOCC [    32 ]

  @DF-RKS Final Energy:  -376.54086241503046

   => Energetics <=

    Nuclear Repulsion Energy =            406.1277173144811172
    One-Electron Energy =               -1302.9943810935465081
    Two-Electron Energy =                 574.6171017949609450
    DFT Exchange-Correlation Energy =     -54.2913004309260003
    Empirical Dispersion Energy =           0.0000000000000000
    VV10 Nonlocal Energy =                  0.0000000000000000
    Total Energy =                       -376.5408624150305172

Computation Completed


Properties will be evaluated at   0.000000,   0.000000,   0.000000 [a0]

Properties computed using the SCF density matrix

  Nuclear Dipole Moment: [e a0]
     X:     1.7966      Y:     0.0015      Z:    -0.0127

  Electronic Dipole Moment: [e a0]
     X:     0.6558      Y:    -0.0031      Z:    -0.0042

  Dipole Moment: [e a0]
     X:     2.4523      Y:    -0.0017      Z:    -0.0169     Total:     2.4524

  Dipole Moment: [D]
     X:     6.2332      Y:    -0.0042      Z:    -0.0430     Total:     6.2334


*** tstop() called on aaojha at Fri May 14 10:07:55 2021
Module time:
	user time   =       6.87 seconds =       0.11 minutes
	system time =       0.16 seconds =       0.00 minutes
	total time  =          7 seconds =       0.12 minutes
Total time:
	user time   =       6.87 seconds =       0.11 minutes
	system time =       0.16 seconds =       0.00 minutes
	total time  =          7 seconds =       0.12 minutes

*** tstart() called on aaojha
*** at Fri May 14 10:07:55 2021


         ------------------------------------------------------------
                                   SCF GRAD                          
                          Rob Parrish, Justin Turney,                
                       Andy Simmonett, and Alex Sokolov              
         ------------------------------------------------------------

  ==> Geometry <==

    Molecular point group: c1
    Full point group: C1

    Geometry (in Angstrom), charge = 1, multiplicity = 1:

       Center              X                  Y                   Z               Mass       
    ------------   -----------------  -----------------  -----------------  -----------------
         C            0.186412873042    -0.000637831441    -0.001115305970    12.000000000000
         C           -0.552436126958    -0.530676931441    -1.117523905970    12.000000000000
         C           -1.969008326958    -0.524092731441    -1.104020605970    12.000000000000
         C           -2.673640926958     0.007932768559     0.015894094030    12.000000000000
         C           -1.952664626958     0.535697468559     1.127382394030    12.000000000000
         C           -0.536017626958     0.533851968559     1.123898994030    12.000000000000
         C            1.695986073042    -0.004797431441    -0.010193305970    12.000000000000
         N            2.424131773042     0.499934168559     1.052905394030    14.003074004430
         N            2.408375473042    -0.514849031441    -1.081336905970    14.003074004430
         H           -0.036417626958    -0.951214031441    -2.002067905970     1.007825032230
         H           -2.526323826958    -0.934584431441    -1.968450605970     1.007825032230
         H           -3.782308826958     0.011226968559     0.022455594030     1.007825032230
         H           -2.497200926958     0.949446968559     1.998380494030     1.007825032230
         H           -0.007016926958     0.951066468559     2.002320194030     1.007825032230
         H            3.475671073042     0.502488668559     1.058806294030     1.007825032230
         H            1.936301873042     0.896800968559     1.892220294030     1.007825032230
         H            3.459744773042    -0.518439631441    -1.100471105970     1.007825032230
         H            1.908905173042    -0.905277231441    -1.916826305970     1.007825032230

  Nuclear repulsion =  406.127717314481117

  ==> Basis Set <==

  Basis Set: STO-3G
    Blend: STO-3G
    Number of shells: 36
    Number of basis function: 54
    Number of Cartesian functions: 54
    Spherical Harmonics?: true
    Max angular momentum: 1

  ==> DFJKGrad: Density-Fitted SCF Gradients <==

    Gradient:                    1
    J tasked:                  Yes
    K tasked:                   No
    wK tasked:                  No
    OpenMP threads:              1
    Integrals threads:           1
    Memory [MiB]:            35762
    Schwarz Cutoff:          0E+00
    Fitting Condition:       1E-10

   => Auxiliary Basis Set <=

  Basis Set: (STO-3G AUX)
    Blend: DEF2-SVP-JKFIT
    Number of shells: 279
    Number of basis function: 841
    Number of Cartesian functions: 989
    Spherical Harmonics?: true
    Max angular momentum: 4

  ==> DFT Potential <==

   => Composite Functional: BLYP <= 

    BLYP GGA Exchange-Correlation Functional

    P.J. Stephens et. al., J. Phys. Chem., 98, 11623-11627, 1994
    B. Miehlich et. al., Chem. Phys. Lett., 157(3), 200-206 1989


    Deriv               =              1
    GGA                 =           TRUE
    Meta                =          FALSE

    Exchange Hybrid     =          FALSE
    MP2 Hybrid          =          FALSE

   => Exchange Functionals <=

    1.0000     XC_GGA_X_B88

   => Correlation Functionals <=

    1.0000     XC_GGA_C_LYP

   => Molecular Quadrature <=

    Radial Scheme          =       TREUTLER
    Pruning Scheme         =           FLAT
    Nuclear Scheme         =       TREUTLER

    BS radius alpha        =              1
    Pruning alpha          =              1
    Radial Points          =             75
    Spherical Points       =            302
    Total Points           =         394937
    Total Blocks           =           2938
    Max Points             =            256
    Max Functions          =             51


  -Total Gradient:
     Atom            X                  Y                   Z
    ------   -----------------  -----------------  -----------------
       1        0.000013275439    -0.000036938575    -0.000014398717
       2        0.000022790783     0.000026482597    -0.000003245016
       3        0.000013400030     0.000006673584     0.000024341494
       4       -0.000040401069     0.000002280212    -0.000000047978
       5       -0.000004778382     0.000001084047     0.000003896646
       6        0.000013238231    -0.000009940826    -0.000025307373
       7       -0.000104784134     0.000052553187    -0.000010673024
       8        0.000098678328    -0.000049933826    -0.000093249511
       9       -0.000038321555    -0.000124037426     0.000035081322
      10        0.000010859853    -0.000004901288     0.000002092452
      11       -0.000000519899     0.000002348134     0.000001830546
      12       -0.000003312429     0.000001197502     0.000002107478
      13       -0.000003875528    -0.000001605309    -0.000000711133
      14        0.000006239654    -0.000003497378    -0.000005532793
      15        0.000011940052     0.000058802600     0.000105512987
      16       -0.000002339136     0.000000131364     0.000000777695
      17        0.000002410209     0.000049967219     0.000007883894
      18       -0.000010326537     0.000029316540    -0.000030366421


*** tstop() called on aaojha at Fri May 14 10:07:57 2021
Module time:
	user time   =       1.99 seconds =       0.03 minutes
	system time =       0.01 seconds =       0.00 minutes
	total time  =          2 seconds =       0.03 minutes
Total time:
	user time   =       8.86 seconds =       0.15 minutes
	system time =       0.17 seconds =       0.00 minutes
	total time  =          9 seconds =       0.15 minutes

    Psi4 stopped on: Friday, 14 May 2021 10:07AM
    Psi4 wall time for execution: 0:00:09.10

*** Psi4 exiting successfully. Buy a developer a beer!
