
Host: aaojha

Timers On : Fri May 14 09:08:30 2021
Timers Off: Fri May 14 09:08:40 2021

Wall Time:        9.90 seconds

                                                       Time (seconds)
Module                                       User      System        Wall        Calls
V: Grid                             :      1.250u      0.017s      0.761w      1 calls
DFH: sparsity prep                  :      0.033u      0.000s      0.013w      1 calls
DFH: initialize()                   :      0.617u      0.067s      0.409w      1 calls
DFH: AO Construction                :      0.250u      0.017s      0.164w      1 calls
DFH: AO-Met. Contraction            :      0.067u      0.017s      0.048w      1 calls
HF: Form core H                     :      0.000u      0.000s      0.002w      1 calls
HF: Form S/X                        :      0.000u      0.000s      0.000w      1 calls
HF: Guess                           :      0.267u      0.000s      0.163w      1 calls
SAD Guess                           :      0.267u      0.000s      0.155w      1 calls
HF: Form G                          :      8.550u      0.133s      5.224w     14 calls
RV: Form V                          :      8.500u      0.133s      5.200w     14 calls
Properties                          :      2.517u      0.033s      1.584w  44790 calls
Functional                          :      4.500u      0.067s      2.755w  44790 calls
V_xc                                :      2.283u      0.033s      1.380w  41804 calls
JK: D                               :      0.000u      0.000s      0.000w     14 calls
JK: USO2AO                          :      0.000u      0.000s      0.000w     14 calls
JK: JK                              :      0.050u      0.000s      0.023w     14 calls
DFH: compute_JK()                   :      0.050u      0.000s      0.023w     14 calls
DFH: Grabbing AOs                   :      0.000u      0.000s      0.000w     14 calls
DFH: compute_J                      :      0.050u      0.000s      0.023w     14 calls
JK: AO2USO                          :      0.000u      0.000s      0.000w     14 calls
HF: Form F                          :      0.000u      0.000s      0.000w     14 calls
HF: Form D                          :      0.000u      0.000s      0.000w     14 calls
HF: DIIS                            :      0.033u      0.000s      0.015w     13 calls
DIISManager::add_entry              :      0.000u      0.000s      0.001w     13 calls
DIISManager::extrapolate            :      0.000u      0.000s      0.011w     13 calls
bMatrix setup                       :      0.000u      0.000s      0.010w     13 calls
bMatrix pseudoinverse               :      0.000u      0.000s      0.000w     13 calls
New vector                          :      0.000u      0.000s      0.000w     13 calls
HF: Form C                          :      0.000u      0.000s      0.003w     13 calls
Grad: V T Perturb                   :      0.100u      0.000s      0.055w      1 calls
Grad: S                             :      0.000u      0.000s      0.001w      1 calls
Grad: JK                            :      1.917u      0.000s      1.188w      1 calls
JKGrad: Amn                         :      0.300u      0.000s      0.181w      1 calls
JKGrad: Awmn                        :      0.000u      0.000s      0.000w      1 calls
JKGrad: AB                          :      0.283u      0.000s      0.179w      1 calls
JKGrad: UV                          :      0.000u      0.000s      0.000w      1 calls
JKGrad: ABx                         :      0.133u      0.000s      0.079w      1 calls
JKGrad: Amnx                        :      1.183u      0.000s      0.727w      1 calls
Grad: XC                            :      1.483u      0.000s      0.911w      1 calls
V_xc gradient                       :      0.550u      0.000s      0.326w   2986 calls

--------------------------------------------------------------------------------------
V: Grid                             :      1.250u      0.017s      0.761w      1 calls
DFH: sparsity prep                  :      0.033u      0.000s      0.013w      1 calls
DFH: initialize()                   :      0.617u      0.067s      0.409w      1 calls
| DFH: AO Construction              :      0.250u      0.017s      0.164w      1 calls
| DFH: AO-Met. Contraction          :      0.067u      0.017s      0.048w      1 calls
HF: Form core H                     :      0.000u      0.000s      0.002w      1 calls
HF: Form S/X                        :      0.000u      0.000s      0.000w      1 calls
HF: Guess                           :      0.267u      0.000s      0.163w      1 calls
| SAD Guess                         :      0.267u      0.000s      0.155w      1 calls
HF: Form G                          :      8.550u      0.133s      5.224w     14 calls
| RV: Form V                        :      8.500u      0.133s      5.200w     14 calls
| | Properties                      :      1.950u      0.033s      1.214w  41804 calls
| | Functional                      :      4.133u      0.067s      2.545w  41804 calls
| | V_xc                            :      2.283u      0.033s      1.380w  41804 calls
| JK: D                             :      0.000u      0.000s      0.000w     14 calls
| JK: USO2AO                        :      0.000u      0.000s      0.000w     14 calls
| JK: JK                            :      0.050u      0.000s      0.023w     14 calls
| | DFH: compute_JK()               :      0.050u      0.000s      0.023w     14 calls
| | | DFH: Grabbing AOs             :      0.000u      0.000s      0.000w     14 calls
| | | DFH: compute_J                :      0.050u      0.000s      0.023w     14 calls
| JK: AO2USO                        :      0.000u      0.000s      0.000w     14 calls
HF: Form F                          :      0.000u      0.000s      0.000w     14 calls
HF: Form D                          :      0.000u      0.000s      0.000w     14 calls
HF: DIIS                            :      0.033u      0.000s      0.015w     13 calls
| DIISManager::add_entry            :      0.000u      0.000s      0.001w     13 calls
| DIISManager::extrapolate          :      0.000u      0.000s      0.011w     13 calls
| | bMatrix setup                   :      0.000u      0.000s      0.010w     13 calls
| | bMatrix pseudoinverse           :      0.000u      0.000s      0.000w     13 calls
| | New vector                      :      0.000u      0.000s      0.000w     13 calls
HF: Form C                          :      0.000u      0.000s      0.003w     13 calls
Grad: V T Perturb                   :      0.100u      0.000s      0.055w      1 calls
Grad: S                             :      0.000u      0.000s      0.001w      1 calls
Grad: JK                            :      1.917u      0.000s      1.188w      1 calls
| JKGrad: Amn                       :      0.300u      0.000s      0.181w      1 calls
| JKGrad: Awmn                      :      0.000u      0.000s      0.000w      1 calls
| JKGrad: AB                        :      0.283u      0.000s      0.179w      1 calls
| JKGrad: UV                        :      0.000u      0.000s      0.000w      1 calls
| JKGrad: ABx                       :      0.133u      0.000s      0.079w      1 calls
| JKGrad: Amnx                      :      1.183u      0.000s      0.727w      1 calls
Grad: XC                            :      1.483u      0.000s      0.911w      1 calls
| Properties                        :      0.567u      0.000s      0.371w   2986 calls
| Functional                        :      0.367u      0.000s      0.210w   2986 calls
| V_xc gradient                     :      0.550u      0.000s      0.326w   2986 calls

**************************************************************************************

Host: aaojha

Timers On : Fri May 14 09:08:40 2021
Timers Off: Fri May 14 09:08:50 2021

Wall Time:        9.89 seconds

                                                       Time (seconds)
Module                                       User      System        Wall        Calls
V: Grid                             :      1.250u      0.033s      0.766w      1 calls
DFH: sparsity prep                  :      0.017u      0.000s      0.013w      1 calls
DFH: initialize()                   :      0.667u      0.017s      0.413w      1 calls
DFH: AO Construction                :      0.267u      0.000s      0.163w      1 calls
DFH: AO-Met. Contraction            :      0.083u      0.000s      0.052w      1 calls
HF: Form core H                     :      0.000u      0.000s      0.010w      1 calls
HF: Form S/X                        :      0.000u      0.000s      0.001w      1 calls
HF: Guess                           :      0.267u      0.000s      0.163w      1 calls
SAD Guess                           :      0.250u      0.000s      0.155w      1 calls
HF: Form G                          :      8.617u      0.117s      5.246w     14 calls
RV: Form V                          :      8.600u      0.117s      5.221w     14 calls
Properties                          :      2.350u      0.017s      1.592w  44565 calls
Functional                          :      4.767u      0.067s      2.739w  44565 calls
V_xc                                :      2.283u      0.033s      1.380w  41594 calls
JK: D                               :      0.000u      0.000s      0.000w     14 calls
JK: USO2AO                          :      0.000u      0.000s      0.000w     14 calls
JK: JK                              :      0.017u      0.000s      0.024w     14 calls
DFH: compute_JK()                   :      0.017u      0.000s      0.024w     14 calls
DFH: Grabbing AOs                   :      0.000u      0.000s      0.000w     14 calls
DFH: compute_J                      :      0.017u      0.000s      0.024w     14 calls
JK: AO2USO                          :      0.000u      0.000s      0.000w     14 calls
HF: Form F                          :      0.000u      0.000s      0.000w     14 calls
HF: Form D                          :      0.000u      0.000s      0.000w     14 calls
HF: DIIS                            :      0.000u      0.000s      0.007w     13 calls
DIISManager::add_entry              :      0.000u      0.000s      0.001w     13 calls
DIISManager::extrapolate            :      0.000u      0.000s      0.002w     13 calls
bMatrix setup                       :      0.000u      0.000s      0.001w     13 calls
bMatrix pseudoinverse               :      0.000u      0.000s      0.001w     13 calls
New vector                          :      0.000u      0.000s      0.001w     13 calls
HF: Form C                          :      0.017u      0.000s      0.003w     13 calls
Grad: V T Perturb                   :      0.083u      0.000s      0.057w      1 calls
Grad: S                             :      0.017u      0.000s      0.001w      1 calls
Grad: JK                            :      1.900u      0.000s      1.158w      1 calls
JKGrad: Amn                         :      0.300u      0.000s      0.180w      1 calls
JKGrad: Awmn                        :      0.000u      0.000s      0.000w      1 calls
JKGrad: AB                          :      0.283u      0.000s      0.173w      1 calls
JKGrad: UV                          :      0.000u      0.000s      0.000w      1 calls
JKGrad: ABx                         :      0.133u      0.000s      0.075w      1 calls
JKGrad: Amnx                        :      1.167u      0.000s      0.707w      1 calls
Grad: XC                            :      1.467u      0.017s      0.875w      1 calls
V_xc gradient                       :      0.583u      0.017s      0.317w   2971 calls

--------------------------------------------------------------------------------------
V: Grid                             :      1.250u      0.033s      0.766w      1 calls
DFH: sparsity prep                  :      0.017u      0.000s      0.013w      1 calls
DFH: initialize()                   :      0.667u      0.017s      0.413w      1 calls
| DFH: AO Construction              :      0.267u      0.000s      0.163w      1 calls
| DFH: AO-Met. Contraction          :      0.083u      0.000s      0.052w      1 calls
HF: Form core H                     :      0.000u      0.000s      0.010w      1 calls
HF: Form S/X                        :      0.000u      0.000s      0.001w      1 calls
HF: Guess                           :      0.267u      0.000s      0.163w      1 calls
| SAD Guess                         :      0.250u      0.000s      0.155w      1 calls
HF: Form G                          :      8.617u      0.117s      5.246w     14 calls
| RV: Form V                        :      8.600u      0.117s      5.221w     14 calls
| | Properties                      :      1.750u      0.017s      1.226w  41594 calls
| | Functional                      :      4.517u      0.067s      2.553w  41594 calls
| | V_xc                            :      2.283u      0.033s      1.380w  41594 calls
| JK: D                             :      0.000u      0.000s      0.000w     14 calls
| JK: USO2AO                        :      0.000u      0.000s      0.000w     14 calls
| JK: JK                            :      0.017u      0.000s      0.024w     14 calls
| | DFH: compute_JK()               :      0.017u      0.000s      0.024w     14 calls
| | | DFH: Grabbing AOs             :      0.000u      0.000s      0.000w     14 calls
| | | DFH: compute_J                :      0.017u      0.000s      0.024w     14 calls
| JK: AO2USO                        :      0.000u      0.000s      0.000w     14 calls
HF: Form F                          :      0.000u      0.000s      0.000w     14 calls
HF: Form D                          :      0.000u      0.000s      0.000w     14 calls
HF: DIIS                            :      0.000u      0.000s      0.007w     13 calls
| DIISManager::add_entry            :      0.000u      0.000s      0.001w     13 calls
| DIISManager::extrapolate          :      0.000u      0.000s      0.002w     13 calls
| | bMatrix setup                   :      0.000u      0.000s      0.001w     13 calls
| | bMatrix pseudoinverse           :      0.000u      0.000s      0.001w     13 calls
| | New vector                      :      0.000u      0.000s      0.001w     13 calls
HF: Form C                          :      0.017u      0.000s      0.003w     13 calls
Grad: V T Perturb                   :      0.083u      0.000s      0.057w      1 calls
Grad: S                             :      0.017u      0.000s      0.001w      1 calls
Grad: JK                            :      1.900u      0.000s      1.158w      1 calls
| JKGrad: Amn                       :      0.300u      0.000s      0.180w      1 calls
| JKGrad: Awmn                      :      0.000u      0.000s      0.000w      1 calls
| JKGrad: AB                        :      0.283u      0.000s      0.173w      1 calls
| JKGrad: UV                        :      0.000u      0.000s      0.000w      1 calls
| JKGrad: ABx                       :      0.133u      0.000s      0.075w      1 calls
| JKGrad: Amnx                      :      1.167u      0.000s      0.707w      1 calls
Grad: XC                            :      1.467u      0.017s      0.875w      1 calls
| Properties                        :      0.600u      0.000s      0.366w   2971 calls
| Functional                        :      0.250u      0.000s      0.185w   2971 calls
| V_xc gradient                     :      0.583u      0.017s      0.317w   2971 calls

**************************************************************************************

Host: aaojha

Timers On : Fri May 14 09:08:50 2021
Timers Off: Fri May 14 09:09:00 2021

Wall Time:        9.87 seconds

                                                       Time (seconds)
Module                                       User      System        Wall        Calls
V: Grid                             :      1.250u      0.033s      0.767w      1 calls
DFH: sparsity prep                  :      0.017u      0.000s      0.013w      1 calls
DFH: initialize()                   :      0.667u      0.017s      0.408w      1 calls
DFH: AO Construction                :      0.267u      0.000s      0.162w      1 calls
DFH: AO-Met. Contraction            :      0.083u      0.000s      0.049w      1 calls
HF: Form core H                     :      0.000u      0.000s      0.010w      1 calls
HF: Form S/X                        :      0.000u      0.000s      0.000w      1 calls
HF: Guess                           :      0.267u      0.000s      0.160w      1 calls
SAD Guess                           :      0.267u      0.000s      0.152w      1 calls
HF: Form G                          :      8.550u      0.133s      5.199w     14 calls
RV: Form V                          :      8.450u      0.133s      5.176w     14 calls
Properties                          :      2.683u      0.050s      1.591w  44400 calls
Functional                          :      4.200u      0.050s      2.697w  44400 calls
V_xc                                :      2.100u      0.017s      1.375w  41440 calls
JK: D                               :      0.000u      0.000s      0.000w     14 calls
JK: USO2AO                          :      0.000u      0.000s      0.000w     14 calls
JK: JK                              :      0.100u      0.000s      0.022w     14 calls
DFH: compute_JK()                   :      0.100u      0.000s      0.022w     14 calls
DFH: Grabbing AOs                   :      0.000u      0.000s      0.000w     14 calls
DFH: compute_J                      :      0.100u      0.000s      0.022w     14 calls
JK: AO2USO                          :      0.000u      0.000s      0.000w     14 calls
HF: Form F                          :      0.000u      0.000s      0.000w     14 calls
HF: Form D                          :      0.000u      0.000s      0.000w     14 calls
HF: DIIS                            :      0.017u      0.000s      0.006w     13 calls
DIISManager::add_entry              :      0.000u      0.000s      0.001w     13 calls
DIISManager::extrapolate            :      0.017u      0.000s      0.001w     13 calls
bMatrix setup                       :      0.000u      0.000s      0.001w     13 calls
bMatrix pseudoinverse               :      0.000u      0.000s      0.000w     13 calls
New vector                          :      0.000u      0.000s      0.000w     13 calls
HF: Form C                          :      0.000u      0.000s      0.003w     13 calls
Grad: V T Perturb                   :      0.100u      0.000s      0.055w      1 calls
Grad: S                             :      0.000u      0.000s      0.001w      1 calls
Grad: JK                            :      1.950u      0.000s      1.176w      1 calls
JKGrad: Amn                         :      0.300u      0.000s      0.184w      1 calls
JKGrad: Awmn                        :      0.000u      0.000s      0.000w      1 calls
JKGrad: AB                          :      0.300u      0.000s      0.177w      1 calls
JKGrad: UV                          :      0.000u      0.000s      0.000w      1 calls
JKGrad: ABx                         :      0.133u      0.000s      0.078w      1 calls
JKGrad: Amnx                        :      1.200u      0.000s      0.723w      1 calls
Grad: XC                            :      1.450u      0.017s      0.878w      1 calls
V_xc gradient                       :      0.683u      0.017s      0.322w   2960 calls

--------------------------------------------------------------------------------------
V: Grid                             :      1.250u      0.033s      0.767w      1 calls
DFH: sparsity prep                  :      0.017u      0.000s      0.013w      1 calls
DFH: initialize()                   :      0.667u      0.017s      0.408w      1 calls
| DFH: AO Construction              :      0.267u      0.000s      0.162w      1 calls
| DFH: AO-Met. Contraction          :      0.083u      0.000s      0.049w      1 calls
HF: Form core H                     :      0.000u      0.000s      0.010w      1 calls
HF: Form S/X                        :      0.000u      0.000s      0.000w      1 calls
HF: Guess                           :      0.267u      0.000s      0.160w      1 calls
| SAD Guess                         :      0.267u      0.000s      0.152w      1 calls
HF: Form G                          :      8.550u      0.133s      5.199w     14 calls
| RV: Form V                        :      8.450u      0.133s      5.176w     14 calls
| | Properties                      :      2.233u      0.050s      1.223w  41440 calls
| | Functional                      :      3.917u      0.050s      2.515w  41440 calls
| | V_xc                            :      2.100u      0.017s      1.375w  41440 calls
| JK: D                             :      0.000u      0.000s      0.000w     14 calls
| JK: USO2AO                        :      0.000u      0.000s      0.000w     14 calls
| JK: JK                            :      0.100u      0.000s      0.022w     14 calls
| | DFH: compute_JK()               :      0.100u      0.000s      0.022w     14 calls
| | | DFH: Grabbing AOs             :      0.000u      0.000s      0.000w     14 calls
| | | DFH: compute_J                :      0.100u      0.000s      0.022w     14 calls
| JK: AO2USO                        :      0.000u      0.000s      0.000w     14 calls
HF: Form F                          :      0.000u      0.000s      0.000w     14 calls
HF: Form D                          :      0.000u      0.000s      0.000w     14 calls
HF: DIIS                            :      0.017u      0.000s      0.006w     13 calls
| DIISManager::add_entry            :      0.000u      0.000s      0.001w     13 calls
| DIISManager::extrapolate          :      0.017u      0.000s      0.001w     13 calls
| | bMatrix setup                   :      0.000u      0.000s      0.001w     13 calls
| | bMatrix pseudoinverse           :      0.000u      0.000s      0.000w     13 calls
| | New vector                      :      0.000u      0.000s      0.000w     13 calls
HF: Form C                          :      0.000u      0.000s      0.003w     13 calls
Grad: V T Perturb                   :      0.100u      0.000s      0.055w      1 calls
Grad: S                             :      0.000u      0.000s      0.001w      1 calls
Grad: JK                            :      1.950u      0.000s      1.176w      1 calls
| JKGrad: Amn                       :      0.300u      0.000s      0.184w      1 calls
| JKGrad: Awmn                      :      0.000u      0.000s      0.000w      1 calls
| JKGrad: AB                        :      0.300u      0.000s      0.177w      1 calls
| JKGrad: UV                        :      0.000u      0.000s      0.000w      1 calls
| JKGrad: ABx                       :      0.133u      0.000s      0.078w      1 calls
| JKGrad: Amnx                      :      1.200u      0.000s      0.723w      1 calls
Grad: XC                            :      1.450u      0.017s      0.878w      1 calls
| Properties                        :      0.450u      0.000s      0.368w   2960 calls
| Functional                        :      0.283u      0.000s      0.182w   2960 calls
| V_xc gradient                     :      0.683u      0.017s      0.322w   2960 calls

**************************************************************************************

Host: aaojha

Timers On : Fri May 14 09:09:00 2021
Timers Off: Fri May 14 09:09:10 2021

Wall Time:        9.96 seconds

                                                       Time (seconds)
Module                                       User      System        Wall        Calls
V: Grid                             :      1.300u      0.017s      0.795w      1 calls
DFH: sparsity prep                  :      0.033u      0.000s      0.013w      1 calls
DFH: initialize()                   :      0.633u      0.033s      0.410w      1 calls
DFH: AO Construction                :      0.267u      0.000s      0.164w      1 calls
DFH: AO-Met. Contraction            :      0.067u      0.017s      0.048w      1 calls
HF: Form core H                     :      0.000u      0.000s      0.001w      1 calls
HF: Form S/X                        :      0.000u      0.017s      0.000w      1 calls
HF: Guess                           :      0.267u      0.000s      0.163w      1 calls
SAD Guess                           :      0.250u      0.000s      0.156w      1 calls
HF: Form G                          :      8.717u      0.083s      5.267w     14 calls
RV: Form V                          :      8.683u      0.083s      5.243w     14 calls
Properties                          :      2.550u      0.050s      1.604w  44415 calls
Functional                          :      4.617u      0.033s      2.738w  44415 calls
V_xc                                :      2.267u      0.000s      1.389w  41454 calls
JK: D                               :      0.000u      0.000s      0.000w     14 calls
JK: USO2AO                          :      0.000u      0.000s      0.000w     14 calls
JK: JK                              :      0.033u      0.000s      0.023w     14 calls
DFH: compute_JK()                   :      0.033u      0.000s      0.023w     14 calls
DFH: Grabbing AOs                   :      0.000u      0.000s      0.000w     14 calls
DFH: compute_J                      :      0.033u      0.000s      0.023w     14 calls
JK: AO2USO                          :      0.000u      0.000s      0.000w     14 calls
HF: Form F                          :      0.000u      0.000s      0.000w     14 calls
HF: Form D                          :      0.000u      0.000s      0.000w     14 calls
HF: DIIS                            :      0.017u      0.000s      0.015w     13 calls
DIISManager::add_entry              :      0.000u      0.000s      0.001w     13 calls
DIISManager::extrapolate            :      0.000u      0.000s      0.011w     13 calls
bMatrix setup                       :      0.000u      0.000s      0.010w     13 calls
bMatrix pseudoinverse               :      0.000u      0.000s      0.001w     13 calls
New vector                          :      0.000u      0.000s      0.001w     13 calls
HF: Form C                          :      0.000u      0.000s      0.003w     13 calls
Grad: V T Perturb                   :      0.083u      0.000s      0.055w      1 calls
Grad: S                             :      0.000u      0.000s      0.001w      1 calls
Grad: JK                            :      1.950u      0.000s      1.177w      1 calls
JKGrad: Amn                         :      0.300u      0.000s      0.184w      1 calls
JKGrad: Awmn                        :      0.000u      0.000s      0.000w      1 calls
JKGrad: AB                          :      0.300u      0.000s      0.176w      1 calls
JKGrad: UV                          :      0.000u      0.000s      0.000w      1 calls
JKGrad: ABx                         :      0.133u      0.000s      0.078w      1 calls
JKGrad: Amnx                        :      1.183u      0.000s      0.715w      1 calls
Grad: XC                            :      1.467u      0.000s      0.876w      1 calls
V_xc gradient                       :      0.583u      0.000s      0.318w   2961 calls

--------------------------------------------------------------------------------------
V: Grid                             :      1.300u      0.017s      0.795w      1 calls
DFH: sparsity prep                  :      0.033u      0.000s      0.013w      1 calls
DFH: initialize()                   :      0.633u      0.033s      0.410w      1 calls
| DFH: AO Construction              :      0.267u      0.000s      0.164w      1 calls
| DFH: AO-Met. Contraction          :      0.067u      0.017s      0.048w      1 calls
HF: Form core H                     :      0.000u      0.000s      0.001w      1 calls
HF: Form S/X                        :      0.000u      0.017s      0.000w      1 calls
HF: Guess                           :      0.267u      0.000s      0.163w      1 calls
| SAD Guess                         :      0.250u      0.000s      0.156w      1 calls
HF: Form G                          :      8.717u      0.083s      5.267w     14 calls
| RV: Form V                        :      8.683u      0.083s      5.243w     14 calls
| | Properties                      :      1.933u      0.050s      1.236w  41454 calls
| | Functional                      :      4.367u      0.033s      2.553w  41454 calls
| | V_xc                            :      2.267u      0.000s      1.389w  41454 calls
| JK: D                             :      0.000u      0.000s      0.000w     14 calls
| JK: USO2AO                        :      0.000u      0.000s      0.000w     14 calls
| JK: JK                            :      0.033u      0.000s      0.023w     14 calls
| | DFH: compute_JK()               :      0.033u      0.000s      0.023w     14 calls
| | | DFH: Grabbing AOs             :      0.000u      0.000s      0.000w     14 calls
| | | DFH: compute_J                :      0.033u      0.000s      0.023w     14 calls
| JK: AO2USO                        :      0.000u      0.000s      0.000w     14 calls
HF: Form F                          :      0.000u      0.000s      0.000w     14 calls
HF: Form D                          :      0.000u      0.000s      0.000w     14 calls
HF: DIIS                            :      0.017u      0.000s      0.015w     13 calls
| DIISManager::add_entry            :      0.000u      0.000s      0.001w     13 calls
| DIISManager::extrapolate          :      0.000u      0.000s      0.011w     13 calls
| | bMatrix setup                   :      0.000u      0.000s      0.010w     13 calls
| | bMatrix pseudoinverse           :      0.000u      0.000s      0.001w     13 calls
| | New vector                      :      0.000u      0.000s      0.001w     13 calls
HF: Form C                          :      0.000u      0.000s      0.003w     13 calls
Grad: V T Perturb                   :      0.083u      0.000s      0.055w      1 calls
Grad: S                             :      0.000u      0.000s      0.001w      1 calls
Grad: JK                            :      1.950u      0.000s      1.177w      1 calls
| JKGrad: Amn                       :      0.300u      0.000s      0.184w      1 calls
| JKGrad: Awmn                      :      0.000u      0.000s      0.000w      1 calls
| JKGrad: AB                        :      0.300u      0.000s      0.176w      1 calls
| JKGrad: UV                        :      0.000u      0.000s      0.000w      1 calls
| JKGrad: ABx                       :      0.133u      0.000s      0.078w      1 calls
| JKGrad: Amnx                      :      1.183u      0.000s      0.715w      1 calls
Grad: XC                            :      1.467u      0.000s      0.876w      1 calls
| Properties                        :      0.617u      0.000s      0.368w   2961 calls
| Functional                        :      0.250u      0.000s      0.185w   2961 calls
| V_xc gradient                     :      0.583u      0.000s      0.318w   2961 calls

**************************************************************************************

Host: aaojha

Timers On : Fri May 14 09:09:10 2021
Timers Off: Fri May 14 09:09:20 2021

Wall Time:       10.02 seconds

                                                       Time (seconds)
Module                                       User      System        Wall        Calls
V: Grid                             :      1.267u      0.017s      0.763w      1 calls
DFH: sparsity prep                  :      0.017u      0.000s      0.013w      1 calls
DFH: initialize()                   :      0.667u      0.017s      0.418w      1 calls
DFH: AO Construction                :      0.283u      0.000s      0.164w      1 calls
DFH: AO-Met. Contraction            :      0.083u      0.000s      0.054w      1 calls
HF: Form core H                     :      0.000u      0.000s      0.010w      1 calls
HF: Form S/X                        :      0.000u      0.000s      0.000w      1 calls
HF: Guess                           :      0.283u      0.000s      0.165w      1 calls
SAD Guess                           :      0.267u      0.000s      0.158w      1 calls
HF: Form G                          :      8.717u      0.083s      5.291w     14 calls
RV: Form V                          :      8.700u      0.083s      5.265w     14 calls
Properties                          :      2.417u      0.033s      1.627w  44235 calls
Functional                          :      4.817u      0.017s      2.747w  44235 calls
V_xc                                :      2.233u      0.033s      1.400w  41286 calls
JK: D                               :      0.000u      0.000s      0.000w     14 calls
JK: USO2AO                          :      0.000u      0.000s      0.000w     14 calls
JK: JK                              :      0.017u      0.000s      0.025w     14 calls
DFH: compute_JK()                   :      0.017u      0.000s      0.025w     14 calls
DFH: Grabbing AOs                   :      0.000u      0.000s      0.000w     14 calls
DFH: compute_J                      :      0.017u      0.000s      0.025w     14 calls
JK: AO2USO                          :      0.000u      0.000s      0.000w     14 calls
HF: Form F                          :      0.000u      0.000s      0.000w     14 calls
HF: Form D                          :      0.000u      0.000s      0.000w     14 calls
HF: DIIS                            :      0.017u      0.000s      0.006w     13 calls
DIISManager::add_entry              :      0.000u      0.000s      0.001w     13 calls
DIISManager::extrapolate            :      0.000u      0.000s      0.002w     13 calls
bMatrix setup                       :      0.000u      0.000s      0.001w     13 calls
bMatrix pseudoinverse               :      0.000u      0.000s      0.000w     13 calls
New vector                          :      0.000u      0.000s      0.000w     13 calls
HF: Form C                          :      0.017u      0.000s      0.003w     13 calls
Grad: V T Perturb                   :      0.083u      0.000s      0.056w      1 calls
Grad: S                             :      0.000u      0.000s      0.001w      1 calls
Grad: JK                            :      1.983u      0.000s      1.189w      1 calls
JKGrad: Amn                         :      0.300u      0.000s      0.183w      1 calls
JKGrad: Awmn                        :      0.000u      0.000s      0.000w      1 calls
JKGrad: AB                          :      0.300u      0.000s      0.178w      1 calls
JKGrad: UV                          :      0.000u      0.000s      0.000w      1 calls
JKGrad: ABx                         :      0.133u      0.000s      0.079w      1 calls
JKGrad: Amnx                        :      1.217u      0.000s      0.732w      1 calls
Grad: XC                            :      1.500u      0.017s      0.907w      1 calls
V_xc gradient                       :      0.567u      0.017s      0.330w   2949 calls

--------------------------------------------------------------------------------------
V: Grid                             :      1.267u      0.017s      0.763w      1 calls
DFH: sparsity prep                  :      0.017u      0.000s      0.013w      1 calls
DFH: initialize()                   :      0.667u      0.017s      0.418w      1 calls
| DFH: AO Construction              :      0.283u      0.000s      0.164w      1 calls
| DFH: AO-Met. Contraction          :      0.083u      0.000s      0.054w      1 calls
HF: Form core H                     :      0.000u      0.000s      0.010w      1 calls
HF: Form S/X                        :      0.000u      0.000s      0.000w      1 calls
HF: Guess                           :      0.283u      0.000s      0.165w      1 calls
| SAD Guess                         :      0.267u      0.000s      0.158w      1 calls
HF: Form G                          :      8.717u      0.083s      5.291w     14 calls
| RV: Form V                        :      8.700u      0.083s      5.265w     14 calls
| | Properties                      :      1.800u      0.033s      1.245w  41286 calls
| | Functional                      :      4.500u      0.017s      2.558w  41286 calls
| | V_xc                            :      2.233u      0.033s      1.400w  41286 calls
| JK: D                             :      0.000u      0.000s      0.000w     14 calls
| JK: USO2AO                        :      0.000u      0.000s      0.000w     14 calls
| JK: JK                            :      0.017u      0.000s      0.025w     14 calls
| | DFH: compute_JK()               :      0.017u      0.000s      0.025w     14 calls
| | | DFH: Grabbing AOs             :      0.000u      0.000s      0.000w     14 calls
| | | DFH: compute_J                :      0.017u      0.000s      0.025w     14 calls
| JK: AO2USO                        :      0.000u      0.000s      0.000w     14 calls
HF: Form F                          :      0.000u      0.000s      0.000w     14 calls
HF: Form D                          :      0.000u      0.000s      0.000w     14 calls
HF: DIIS                            :      0.017u      0.000s      0.006w     13 calls
| DIISManager::add_entry            :      0.000u      0.000s      0.001w     13 calls
| DIISManager::extrapolate          :      0.000u      0.000s      0.002w     13 calls
| | bMatrix setup                   :      0.000u      0.000s      0.001w     13 calls
| | bMatrix pseudoinverse           :      0.000u      0.000s      0.000w     13 calls
| | New vector                      :      0.000u      0.000s      0.000w     13 calls
HF: Form C                          :      0.017u      0.000s      0.003w     13 calls
Grad: V T Perturb                   :      0.083u      0.000s      0.056w      1 calls
Grad: S                             :      0.000u      0.000s      0.001w      1 calls
Grad: JK                            :      1.983u      0.000s      1.189w      1 calls
| JKGrad: Amn                       :      0.300u      0.000s      0.183w      1 calls
| JKGrad: Awmn                      :      0.000u      0.000s      0.000w      1 calls
| JKGrad: AB                        :      0.300u      0.000s      0.178w      1 calls
| JKGrad: UV                        :      0.000u      0.000s      0.000w      1 calls
| JKGrad: ABx                       :      0.133u      0.000s      0.079w      1 calls
| JKGrad: Amnx                      :      1.217u      0.000s      0.732w      1 calls
Grad: XC                            :      1.500u      0.017s      0.907w      1 calls
| Properties                        :      0.617u      0.000s      0.382w   2949 calls
| Functional                        :      0.317u      0.000s      0.189w   2949 calls
| V_xc gradient                     :      0.567u      0.017s      0.330w   2949 calls

**************************************************************************************

Host: aaojha

Timers On : Fri May 14 09:09:21 2021
Timers Off: Fri May 14 09:09:31 2021

Wall Time:       10.34 seconds

                                                       Time (seconds)
Module                                       User      System        Wall        Calls
V: Grid                             :      1.367u      0.000s      0.823w      1 calls
DFH: sparsity prep                  :      0.017u      0.000s      0.014w      1 calls
DFH: initialize()                   :      0.733u      0.017s      0.456w      1 calls
DFH: AO Construction                :      0.300u      0.000s      0.180w      1 calls
DFH: AO-Met. Contraction            :      0.083u      0.000s      0.059w      1 calls
HF: Form core H                     :      0.000u      0.000s      0.002w      1 calls
HF: Form S/X                        :      0.000u      0.000s      0.000w      1 calls
HF: Guess                           :      0.300u      0.000s      0.179w      1 calls
SAD Guess                           :      0.283u      0.000s      0.171w      1 calls
HF: Form G                          :      8.983u      0.150s      5.468w     14 calls
RV: Form V                          :      8.950u      0.150s      5.441w     14 calls
Properties                          :      2.850u      0.050s      1.652w  44280 calls
Functional                          :      4.517u      0.083s      2.826w  44280 calls
V_xc                                :      2.250u      0.017s      1.448w  41328 calls
JK: D                               :      0.000u      0.000s      0.000w     14 calls
JK: USO2AO                          :      0.000u      0.000s      0.000w     14 calls
JK: JK                              :      0.033u      0.000s      0.026w     14 calls
DFH: compute_JK()                   :      0.033u      0.000s      0.026w     14 calls
DFH: Grabbing AOs                   :      0.000u      0.000s      0.000w     14 calls
DFH: compute_J                      :      0.033u      0.000s      0.025w     14 calls
JK: AO2USO                          :      0.000u      0.000s      0.000w     14 calls
HF: Form F                          :      0.000u      0.000s      0.000w     14 calls
HF: Form D                          :      0.000u      0.000s      0.000w     14 calls
HF: DIIS                            :      0.000u      0.000s      0.006w     13 calls
DIISManager::add_entry              :      0.000u      0.000s      0.001w     13 calls
DIISManager::extrapolate            :      0.000u      0.000s      0.002w     13 calls
bMatrix setup                       :      0.000u      0.000s      0.001w     13 calls
bMatrix pseudoinverse               :      0.000u      0.000s      0.000w     13 calls
New vector                          :      0.000u      0.000s      0.000w     13 calls
HF: Form C                          :      0.000u      0.000s      0.003w     13 calls
Grad: V T Perturb                   :      0.100u      0.000s      0.056w      1 calls
Grad: S                             :      0.000u      0.000s      0.001w      1 calls
Grad: JK                            :      1.967u      0.000s      1.183w      1 calls
JKGrad: Amn                         :      0.317u      0.000s      0.182w      1 calls
JKGrad: Awmn                        :      0.000u      0.000s      0.000w      1 calls
JKGrad: AB                          :      0.283u      0.000s      0.174w      1 calls
JKGrad: UV                          :      0.000u      0.000s      0.000w      1 calls
JKGrad: ABx                         :      0.133u      0.000s      0.078w      1 calls
JKGrad: Amnx                        :      1.217u      0.000s      0.735w      1 calls
Grad: XC                            :      1.433u      0.000s      0.865w      1 calls
V_xc gradient                       :      0.567u      0.000s      0.310w   2952 calls

--------------------------------------------------------------------------------------
V: Grid                             :      1.367u      0.000s      0.823w      1 calls
DFH: sparsity prep                  :      0.017u      0.000s      0.014w      1 calls
DFH: initialize()                   :      0.733u      0.017s      0.456w      1 calls
| DFH: AO Construction              :      0.300u      0.000s      0.180w      1 calls
| DFH: AO-Met. Contraction          :      0.083u      0.000s      0.059w      1 calls
HF: Form core H                     :      0.000u      0.000s      0.002w      1 calls
HF: Form S/X                        :      0.000u      0.000s      0.000w      1 calls
HF: Guess                           :      0.300u      0.000s      0.179w      1 calls
| SAD Guess                         :      0.283u      0.000s      0.171w      1 calls
HF: Form G                          :      8.983u      0.150s      5.468w     14 calls
| RV: Form V                        :      8.950u      0.150s      5.441w     14 calls
| | Properties                      :      2.283u      0.050s      1.284w  41328 calls
| | Functional                      :      4.217u      0.083s      2.643w  41328 calls
| | V_xc                            :      2.250u      0.017s      1.448w  41328 calls
| JK: D                             :      0.000u      0.000s      0.000w     14 calls
| JK: USO2AO                        :      0.000u      0.000s      0.000w     14 calls
| JK: JK                            :      0.033u      0.000s      0.026w     14 calls
| | DFH: compute_JK()               :      0.033u      0.000s      0.026w     14 calls
| | | DFH: Grabbing AOs             :      0.000u      0.000s      0.000w     14 calls
| | | DFH: compute_J                :      0.033u      0.000s      0.025w     14 calls
| JK: AO2USO                        :      0.000u      0.000s      0.000w     14 calls
HF: Form F                          :      0.000u      0.000s      0.000w     14 calls
HF: Form D                          :      0.000u      0.000s      0.000w     14 calls
HF: DIIS                            :      0.000u      0.000s      0.006w     13 calls
| DIISManager::add_entry            :      0.000u      0.000s      0.001w     13 calls
| DIISManager::extrapolate          :      0.000u      0.000s      0.002w     13 calls
| | bMatrix setup                   :      0.000u      0.000s      0.001w     13 calls
| | bMatrix pseudoinverse           :      0.000u      0.000s      0.000w     13 calls
| | New vector                      :      0.000u      0.000s      0.000w     13 calls
HF: Form C                          :      0.000u      0.000s      0.003w     13 calls
Grad: V T Perturb                   :      0.100u      0.000s      0.056w      1 calls
Grad: S                             :      0.000u      0.000s      0.001w      1 calls
Grad: JK                            :      1.967u      0.000s      1.183w      1 calls
| JKGrad: Amn                       :      0.317u      0.000s      0.182w      1 calls
| JKGrad: Awmn                      :      0.000u      0.000s      0.000w      1 calls
| JKGrad: AB                        :      0.283u      0.000s      0.174w      1 calls
| JKGrad: UV                        :      0.000u      0.000s      0.000w      1 calls
| JKGrad: ABx                       :      0.133u      0.000s      0.078w      1 calls
| JKGrad: Amnx                      :      1.217u      0.000s      0.735w      1 calls
Grad: XC                            :      1.433u      0.000s      0.865w      1 calls
| Properties                        :      0.567u      0.000s      0.368w   2952 calls
| Functional                        :      0.300u      0.000s      0.183w   2952 calls
| V_xc gradient                     :      0.567u      0.000s      0.310w   2952 calls

**************************************************************************************

Host: aaojha

Timers On : Fri May 14 09:09:31 2021
Timers Off: Fri May 14 09:09:41 2021

Wall Time:       10.01 seconds

                                                       Time (seconds)
Module                                       User      System        Wall        Calls
V: Grid                             :      1.267u      0.017s      0.766w      1 calls
DFH: sparsity prep                  :      0.017u      0.000s      0.014w      1 calls
DFH: initialize()                   :      0.667u      0.017s      0.410w      1 calls
DFH: AO Construction                :      0.267u      0.000s      0.166w      1 calls
DFH: AO-Met. Contraction            :      0.083u      0.000s      0.048w      1 calls
HF: Form core H                     :      0.000u      0.000s      0.000w      1 calls
HF: Form S/X                        :      0.000u      0.000s      0.000w      1 calls
HF: Guess                           :      0.267u      0.000s      0.160w      1 calls
SAD Guess                           :      0.267u      0.000s      0.153w      1 calls
HF: Form G                          :      8.700u      0.183s      5.312w     14 calls
RV: Form V                          :      8.650u      0.183s      5.288w     14 calls
Properties                          :      2.417u      0.033s      1.606w  44400 calls
Functional                          :      4.650u      0.050s      2.764w  44400 calls
V_xc                                :      2.367u      0.067s      1.404w  41440 calls
JK: D                               :      0.000u      0.000s      0.000w     14 calls
JK: USO2AO                          :      0.000u      0.000s      0.000w     14 calls
JK: JK                              :      0.050u      0.000s      0.023w     14 calls
DFH: compute_JK()                   :      0.050u      0.000s      0.023w     14 calls
DFH: Grabbing AOs                   :      0.000u      0.000s      0.000w     14 calls
DFH: compute_J                      :      0.050u      0.000s      0.023w     14 calls
JK: AO2USO                          :      0.000u      0.000s      0.000w     14 calls
HF: Form F                          :      0.000u      0.000s      0.000w     14 calls
HF: Form D                          :      0.000u      0.000s      0.000w     14 calls
HF: DIIS                            :      0.000u      0.000s      0.006w     13 calls
DIISManager::add_entry              :      0.000u      0.000s      0.001w     13 calls
DIISManager::extrapolate            :      0.000u      0.000s      0.001w     13 calls
bMatrix setup                       :      0.000u      0.000s      0.001w     13 calls
bMatrix pseudoinverse               :      0.000u      0.000s      0.000w     13 calls
New vector                          :      0.000u      0.000s      0.000w     13 calls
HF: Form C                          :      0.000u      0.000s      0.003w     13 calls
Grad: V T Perturb                   :      0.100u      0.000s      0.052w      1 calls
Grad: S                             :      0.000u      0.000s      0.001w      1 calls
Grad: JK                            :      1.950u      0.000s      1.183w      1 calls
JKGrad: Amn                         :      0.300u      0.000s      0.182w      1 calls
JKGrad: Awmn                        :      0.000u      0.000s      0.000w      1 calls
JKGrad: AB                          :      0.300u      0.000s      0.176w      1 calls
JKGrad: UV                          :      0.000u      0.000s      0.000w      1 calls
JKGrad: ABx                         :      0.133u      0.000s      0.079w      1 calls
JKGrad: Amnx                        :      1.200u      0.000s      0.723w      1 calls
Grad: XC                            :      1.433u      0.000s      0.865w      1 calls
V_xc gradient                       :      0.517u      0.000s      0.310w   2960 calls

--------------------------------------------------------------------------------------
V: Grid                             :      1.267u      0.017s      0.766w      1 calls
DFH: sparsity prep                  :      0.017u      0.000s      0.014w      1 calls
DFH: initialize()                   :      0.667u      0.017s      0.410w      1 calls
| DFH: AO Construction              :      0.267u      0.000s      0.166w      1 calls
| DFH: AO-Met. Contraction          :      0.083u      0.000s      0.048w      1 calls
HF: Form core H                     :      0.000u      0.000s      0.000w      1 calls
HF: Form S/X                        :      0.000u      0.000s      0.000w      1 calls
HF: Guess                           :      0.267u      0.000s      0.160w      1 calls
| SAD Guess                         :      0.267u      0.000s      0.153w      1 calls
HF: Form G                          :      8.700u      0.183s      5.312w     14 calls
| RV: Form V                        :      8.650u      0.183s      5.288w     14 calls
| | Properties                      :      1.850u      0.033s      1.241w  41440 calls
| | Functional                      :      4.317u      0.050s      2.579w  41440 calls
| | V_xc                            :      2.367u      0.067s      1.404w  41440 calls
| JK: D                             :      0.000u      0.000s      0.000w     14 calls
| JK: USO2AO                        :      0.000u      0.000s      0.000w     14 calls
| JK: JK                            :      0.050u      0.000s      0.023w     14 calls
| | DFH: compute_JK()               :      0.050u      0.000s      0.023w     14 calls
| | | DFH: Grabbing AOs             :      0.000u      0.000s      0.000w     14 calls
| | | DFH: compute_J                :      0.050u      0.000s      0.023w     14 calls
| JK: AO2USO                        :      0.000u      0.000s      0.000w     14 calls
HF: Form F                          :      0.000u      0.000s      0.000w     14 calls
HF: Form D                          :      0.000u      0.000s      0.000w     14 calls
HF: DIIS                            :      0.000u      0.000s      0.006w     13 calls
| DIISManager::add_entry            :      0.000u      0.000s      0.001w     13 calls
| DIISManager::extrapolate          :      0.000u      0.000s      0.001w     13 calls
| | bMatrix setup                   :      0.000u      0.000s      0.001w     13 calls
| | bMatrix pseudoinverse           :      0.000u      0.000s      0.000w     13 calls
| | New vector                      :      0.000u      0.000s      0.000w     13 calls
HF: Form C                          :      0.000u      0.000s      0.003w     13 calls
Grad: V T Perturb                   :      0.100u      0.000s      0.052w      1 calls
Grad: S                             :      0.000u      0.000s      0.001w      1 calls
Grad: JK                            :      1.950u      0.000s      1.183w      1 calls
| JKGrad: Amn                       :      0.300u      0.000s      0.182w      1 calls
| JKGrad: Awmn                      :      0.000u      0.000s      0.000w      1 calls
| JKGrad: AB                        :      0.300u      0.000s      0.176w      1 calls
| JKGrad: UV                        :      0.000u      0.000s      0.000w      1 calls
| JKGrad: ABx                       :      0.133u      0.000s      0.079w      1 calls
| JKGrad: Amnx                      :      1.200u      0.000s      0.723w      1 calls
Grad: XC                            :      1.433u      0.000s      0.865w      1 calls
| Properties                        :      0.567u      0.000s      0.365w   2960 calls
| Functional                        :      0.333u      0.000s      0.185w   2960 calls
| V_xc gradient                     :      0.517u      0.000s      0.310w   2960 calls

**************************************************************************************

Host: aaojha

Timers On : Fri May 14 09:09:42 2021
Timers Off: Fri May 14 09:09:51 2021

Wall Time:        9.97 seconds

                                                       Time (seconds)
Module                                       User      System        Wall        Calls
V: Grid                             :      1.267u      0.000s      0.767w      1 calls
DFH: sparsity prep                  :      0.033u      0.000s      0.014w      1 calls
DFH: initialize()                   :      0.650u      0.017s      0.406w      1 calls
DFH: AO Construction                :      0.267u      0.000s      0.160w      1 calls
DFH: AO-Met. Contraction            :      0.083u      0.000s      0.050w      1 calls
HF: Form core H                     :      0.000u      0.000s      0.001w      1 calls
HF: Form S/X                        :      0.000u      0.000s      0.000w      1 calls
HF: Guess                           :      0.267u      0.000s      0.163w      1 calls
SAD Guess                           :      0.267u      0.000s      0.156w      1 calls
HF: Form G                          :      8.550u      0.133s      5.217w     14 calls
RV: Form V                          :      8.550u      0.133s      5.193w     14 calls
Properties                          :      2.733u      0.033s      1.596w  44490 calls
Functional                          :      4.483u      0.083s      2.730w  44490 calls
V_xc                                :      2.133u      0.017s      1.376w  41524 calls
JK: D                               :      0.000u      0.000s      0.000w     14 calls
JK: USO2AO                          :      0.000u      0.000s      0.000w     14 calls
JK: JK                              :      0.000u      0.000s      0.023w     14 calls
DFH: compute_JK()                   :      0.000u      0.000s      0.023w     14 calls
DFH: Grabbing AOs                   :      0.000u      0.000s      0.000w     14 calls
DFH: compute_J                      :      0.000u      0.000s      0.023w     14 calls
JK: AO2USO                          :      0.000u      0.000s      0.000w     14 calls
HF: Form F                          :      0.000u      0.000s      0.000w     14 calls
HF: Form D                          :      0.000u      0.000s      0.000w     14 calls
HF: DIIS                            :      0.033u      0.000s      0.007w     13 calls
DIISManager::add_entry              :      0.000u      0.000s      0.001w     13 calls
DIISManager::extrapolate            :      0.017u      0.000s      0.003w     13 calls
bMatrix setup                       :      0.000u      0.000s      0.002w     13 calls
bMatrix pseudoinverse               :      0.000u      0.000s      0.000w     13 calls
New vector                          :      0.017u      0.000s      0.000w     13 calls
HF: Form C                          :      0.000u      0.000s      0.003w     13 calls
Grad: V T Perturb                   :      0.100u      0.000s      0.056w      1 calls
Grad: S                             :      0.000u      0.000s      0.001w      1 calls
Grad: JK                            :      2.000u      0.000s      1.201w      1 calls
JKGrad: Amn                         :      0.300u      0.000s      0.183w      1 calls
JKGrad: Awmn                        :      0.000u      0.000s      0.000w      1 calls
JKGrad: AB                          :      0.300u      0.000s      0.177w      1 calls
JKGrad: UV                          :      0.000u      0.000s      0.000w      1 calls
JKGrad: ABx                         :      0.133u      0.000s      0.080w      1 calls
JKGrad: Amnx                        :      1.250u      0.000s      0.747w      1 calls
Grad: XC                            :      1.500u      0.000s      0.903w      1 calls
V_xc gradient                       :      0.583u      0.000s      0.328w   2966 calls

--------------------------------------------------------------------------------------
V: Grid                             :      1.267u      0.000s      0.767w      1 calls
DFH: sparsity prep                  :      0.033u      0.000s      0.014w      1 calls
DFH: initialize()                   :      0.650u      0.017s      0.406w      1 calls
| DFH: AO Construction              :      0.267u      0.000s      0.160w      1 calls
| DFH: AO-Met. Contraction          :      0.083u      0.000s      0.050w      1 calls
HF: Form core H                     :      0.000u      0.000s      0.001w      1 calls
HF: Form S/X                        :      0.000u      0.000s      0.000w      1 calls
HF: Guess                           :      0.267u      0.000s      0.163w      1 calls
| SAD Guess                         :      0.267u      0.000s      0.156w      1 calls
HF: Form G                          :      8.550u      0.133s      5.217w     14 calls
| RV: Form V                        :      8.550u      0.133s      5.193w     14 calls
| | Properties                      :      2.250u      0.033s      1.216w  41524 calls
| | Functional                      :      4.050u      0.083s      2.540w  41524 calls
| | V_xc                            :      2.133u      0.017s      1.376w  41524 calls
| JK: D                             :      0.000u      0.000s      0.000w     14 calls
| JK: USO2AO                        :      0.000u      0.000s      0.000w     14 calls
| JK: JK                            :      0.000u      0.000s      0.023w     14 calls
| | DFH: compute_JK()               :      0.000u      0.000s      0.023w     14 calls
| | | DFH: Grabbing AOs             :      0.000u      0.000s      0.000w     14 calls
| | | DFH: compute_J                :      0.000u      0.000s      0.023w     14 calls
| JK: AO2USO                        :      0.000u      0.000s      0.000w     14 calls
HF: Form F                          :      0.000u      0.000s      0.000w     14 calls
HF: Form D                          :      0.000u      0.000s      0.000w     14 calls
HF: DIIS                            :      0.033u      0.000s      0.007w     13 calls
| DIISManager::add_entry            :      0.000u      0.000s      0.001w     13 calls
| DIISManager::extrapolate          :      0.017u      0.000s      0.003w     13 calls
| | bMatrix setup                   :      0.000u      0.000s      0.002w     13 calls
| | bMatrix pseudoinverse           :      0.000u      0.000s      0.000w     13 calls
| | New vector                      :      0.017u      0.000s      0.000w     13 calls
HF: Form C                          :      0.000u      0.000s      0.003w     13 calls
Grad: V T Perturb                   :      0.100u      0.000s      0.056w      1 calls
Grad: S                             :      0.000u      0.000s      0.001w      1 calls
Grad: JK                            :      2.000u      0.000s      1.201w      1 calls
| JKGrad: Amn                       :      0.300u      0.000s      0.183w      1 calls
| JKGrad: Awmn                      :      0.000u      0.000s      0.000w      1 calls
| JKGrad: AB                        :      0.300u      0.000s      0.177w      1 calls
| JKGrad: UV                        :      0.000u      0.000s      0.000w      1 calls
| JKGrad: ABx                       :      0.133u      0.000s      0.080w      1 calls
| JKGrad: Amnx                      :      1.250u      0.000s      0.747w      1 calls
Grad: XC                            :      1.500u      0.000s      0.903w      1 calls
| Properties                        :      0.483u      0.000s      0.380w   2966 calls
| Functional                        :      0.433u      0.000s      0.190w   2966 calls
| V_xc gradient                     :      0.583u      0.000s      0.328w   2966 calls

**************************************************************************************

Host: aaojha

Timers On : Fri May 14 09:09:52 2021
Timers Off: Fri May 14 09:10:02 2021

Wall Time:       10.13 seconds

                                                       Time (seconds)
Module                                       User      System        Wall        Calls
V: Grid                             :      1.300u      0.033s      0.791w      1 calls
DFH: sparsity prep                  :      0.017u      0.000s      0.013w      1 calls
DFH: initialize()                   :      0.650u      0.033s      0.414w      1 calls
DFH: AO Construction                :      0.267u      0.017s      0.163w      1 calls
DFH: AO-Met. Contraction            :      0.083u      0.000s      0.054w      1 calls
HF: Form core H                     :      0.000u      0.000s      0.010w      1 calls
HF: Form S/X                        :      0.000u      0.000s      0.000w      1 calls
HF: Guess                           :      0.267u      0.017s      0.166w      1 calls
SAD Guess                           :      0.250u      0.017s      0.159w      1 calls
HF: Form G                          :      8.900u      0.067s      5.395w     14 calls
RV: Form V                          :      8.867u      0.067s      5.369w     14 calls
Properties                          :      2.383u      0.017s      1.626w  44430 calls
Functional                          :      5.200u      0.033s      2.808w  44430 calls
V_xc                                :      2.083u      0.017s      1.425w  41468 calls
JK: D                               :      0.000u      0.000s      0.000w     14 calls
JK: USO2AO                          :      0.000u      0.000s      0.000w     14 calls
JK: JK                              :      0.033u      0.000s      0.025w     14 calls
DFH: compute_JK()                   :      0.033u      0.000s      0.025w     14 calls
DFH: Grabbing AOs                   :      0.000u      0.000s      0.000w     14 calls
DFH: compute_J                      :      0.033u      0.000s      0.025w     14 calls
JK: AO2USO                          :      0.000u      0.000s      0.000w     14 calls
HF: Form F                          :      0.000u      0.000s      0.000w     14 calls
HF: Form D                          :      0.000u      0.000s      0.000w     14 calls
HF: DIIS                            :      0.017u      0.000s      0.007w     13 calls
DIISManager::add_entry              :      0.000u      0.000s      0.001w     13 calls
DIISManager::extrapolate            :      0.000u      0.000s      0.002w     13 calls
bMatrix setup                       :      0.000u      0.000s      0.001w     13 calls
bMatrix pseudoinverse               :      0.000u      0.000s      0.001w     13 calls
New vector                          :      0.000u      0.000s      0.001w     13 calls
HF: Form C                          :      0.017u      0.000s      0.003w     13 calls
Grad: V T Perturb                   :      0.083u      0.000s      0.054w      1 calls
Grad: S                             :      0.000u      0.000s      0.001w      1 calls
Grad: JK                            :      1.983u      0.000s      1.182w      1 calls
JKGrad: Amn                         :      0.300u      0.000s      0.182w      1 calls
JKGrad: Awmn                        :      0.000u      0.000s      0.000w      1 calls
JKGrad: AB                          :      0.300u      0.000s      0.175w      1 calls
JKGrad: UV                          :      0.000u      0.000s      0.000w      1 calls
JKGrad: ABx                         :      0.117u      0.000s      0.079w      1 calls
JKGrad: Amnx                        :      1.217u      0.000s      0.730w      1 calls
Grad: XC                            :      1.433u      0.000s      0.873w      1 calls
V_xc gradient                       :      0.517u      0.000s      0.315w   2962 calls

--------------------------------------------------------------------------------------
V: Grid                             :      1.300u      0.033s      0.791w      1 calls
DFH: sparsity prep                  :      0.017u      0.000s      0.013w      1 calls
DFH: initialize()                   :      0.650u      0.033s      0.414w      1 calls
| DFH: AO Construction              :      0.267u      0.017s      0.163w      1 calls
| DFH: AO-Met. Contraction          :      0.083u      0.000s      0.054w      1 calls
HF: Form core H                     :      0.000u      0.000s      0.010w      1 calls
HF: Form S/X                        :      0.000u      0.000s      0.000w      1 calls
HF: Guess                           :      0.267u      0.017s      0.166w      1 calls
| SAD Guess                         :      0.250u      0.017s      0.159w      1 calls
HF: Form G                          :      8.900u      0.067s      5.395w     14 calls
| RV: Form V                        :      8.867u      0.067s      5.369w     14 calls
| | Properties                      :      1.800u      0.017s      1.257w  41468 calls
| | Functional                      :      4.867u      0.033s      2.623w  41468 calls
| | V_xc                            :      2.083u      0.017s      1.425w  41468 calls
| JK: D                             :      0.000u      0.000s      0.000w     14 calls
| JK: USO2AO                        :      0.000u      0.000s      0.000w     14 calls
| JK: JK                            :      0.033u      0.000s      0.025w     14 calls
| | DFH: compute_JK()               :      0.033u      0.000s      0.025w     14 calls
| | | DFH: Grabbing AOs             :      0.000u      0.000s      0.000w     14 calls
| | | DFH: compute_J                :      0.033u      0.000s      0.025w     14 calls
| JK: AO2USO                        :      0.000u      0.000s      0.000w     14 calls
HF: Form F                          :      0.000u      0.000s      0.000w     14 calls
HF: Form D                          :      0.000u      0.000s      0.000w     14 calls
HF: DIIS                            :      0.017u      0.000s      0.007w     13 calls
| DIISManager::add_entry            :      0.000u      0.000s      0.001w     13 calls
| DIISManager::extrapolate          :      0.000u      0.000s      0.002w     13 calls
| | bMatrix setup                   :      0.000u      0.000s      0.001w     13 calls
| | bMatrix pseudoinverse           :      0.000u      0.000s      0.001w     13 calls
| | New vector                      :      0.000u      0.000s      0.001w     13 calls
HF: Form C                          :      0.017u      0.000s      0.003w     13 calls
Grad: V T Perturb                   :      0.083u      0.000s      0.054w      1 calls
Grad: S                             :      0.000u      0.000s      0.001w      1 calls
Grad: JK                            :      1.983u      0.000s      1.182w      1 calls
| JKGrad: Amn                       :      0.300u      0.000s      0.182w      1 calls
| JKGrad: Awmn                      :      0.000u      0.000s      0.000w      1 calls
| JKGrad: AB                        :      0.300u      0.000s      0.175w      1 calls
| JKGrad: UV                        :      0.000u      0.000s      0.000w      1 calls
| JKGrad: ABx                       :      0.117u      0.000s      0.079w      1 calls
| JKGrad: Amnx                      :      1.217u      0.000s      0.730w      1 calls
Grad: XC                            :      1.433u      0.000s      0.873w      1 calls
| Properties                        :      0.583u      0.000s      0.369w   2962 calls
| Functional                        :      0.333u      0.000s      0.184w   2962 calls
| V_xc gradient                     :      0.517u      0.000s      0.315w   2962 calls

**************************************************************************************

Host: aaojha

Timers On : Fri May 14 09:10:02 2021
Timers Off: Fri May 14 09:10:12 2021

Wall Time:       10.17 seconds

                                                       Time (seconds)
Module                                       User      System        Wall        Calls
V: Grid                             :      1.267u      0.033s      0.783w      1 calls
DFH: sparsity prep                  :      0.017u      0.000s      0.014w      1 calls
DFH: initialize()                   :      0.667u      0.033s      0.423w      1 calls
DFH: AO Construction                :      0.283u      0.000s      0.173w      1 calls
DFH: AO-Met. Contraction            :      0.067u      0.017s      0.051w      1 calls
HF: Form core H                     :      0.000u      0.000s      0.000w      1 calls
HF: Form S/X                        :      0.000u      0.000s      0.000w      1 calls
HF: Guess                           :      0.267u      0.000s      0.163w      1 calls
SAD Guess                           :      0.267u      0.000s      0.156w      1 calls
HF: Form G                          :      8.717u      0.167s      5.328w     14 calls
RV: Form V                          :      8.650u      0.167s      5.302w     14 calls
Properties                          :      2.633u      0.033s      1.658w  44235 calls
Functional                          :      4.700u      0.067s      2.763w  44235 calls
V_xc                                :      2.217u      0.067s      1.408w  41286 calls
JK: D                               :      0.000u      0.000s      0.000w     14 calls
JK: USO2AO                          :      0.017u      0.000s      0.000w     14 calls
JK: JK                              :      0.050u      0.000s      0.025w     14 calls
DFH: compute_JK()                   :      0.050u      0.000s      0.025w     14 calls
DFH: Grabbing AOs                   :      0.000u      0.000s      0.000w     14 calls
DFH: compute_J                      :      0.050u      0.000s      0.024w     14 calls
JK: AO2USO                          :      0.000u      0.000s      0.000w     14 calls
HF: Form F                          :      0.000u      0.000s      0.000w     14 calls
HF: Form D                          :      0.000u      0.000s      0.000w     14 calls
HF: DIIS                            :      0.017u      0.000s      0.007w     13 calls
DIISManager::add_entry              :      0.000u      0.000s      0.001w     13 calls
DIISManager::extrapolate            :      0.000u      0.000s      0.002w     13 calls
bMatrix setup                       :      0.000u      0.000s      0.001w     13 calls
bMatrix pseudoinverse               :      0.000u      0.000s      0.000w     13 calls
New vector                          :      0.000u      0.000s      0.001w     13 calls
HF: Form C                          :      0.000u      0.000s      0.003w     13 calls
Grad: V T Perturb                   :      0.083u      0.000s      0.055w      1 calls
Grad: S                             :      0.000u      0.000s      0.001w      1 calls
Grad: JK                            :      2.000u      0.000s      1.210w      1 calls
JKGrad: Amn                         :      0.300u      0.000s      0.182w      1 calls
JKGrad: Awmn                        :      0.000u      0.000s      0.000w      1 calls
JKGrad: AB                          :      0.300u      0.000s      0.187w      1 calls
JKGrad: UV                          :      0.000u      0.000s      0.000w      1 calls
JKGrad: ABx                         :      0.133u      0.000s      0.080w      1 calls
JKGrad: Amnx                        :      1.233u      0.000s      0.739w      1 calls
Grad: XC                            :      1.567u      0.000s      0.936w      1 calls
V_xc gradient                       :      0.617u      0.000s      0.337w   2949 calls

--------------------------------------------------------------------------------------
V: Grid                             :      1.267u      0.033s      0.783w      1 calls
DFH: sparsity prep                  :      0.017u      0.000s      0.014w      1 calls
DFH: initialize()                   :      0.667u      0.033s      0.423w      1 calls
| DFH: AO Construction              :      0.283u      0.000s      0.173w      1 calls
| DFH: AO-Met. Contraction          :      0.067u      0.017s      0.051w      1 calls
HF: Form core H                     :      0.000u      0.000s      0.000w      1 calls
HF: Form S/X                        :      0.000u      0.000s      0.000w      1 calls
HF: Guess                           :      0.267u      0.000s      0.163w      1 calls
| SAD Guess                         :      0.267u      0.000s      0.156w      1 calls
HF: Form G                          :      8.717u      0.167s      5.328w     14 calls
| RV: Form V                        :      8.650u      0.167s      5.302w     14 calls
| | Properties                      :      1.933u      0.033s      1.261w  41286 calls
| | Functional                      :      4.450u      0.067s      2.567w  41286 calls
| | V_xc                            :      2.217u      0.067s      1.408w  41286 calls
| JK: D                             :      0.000u      0.000s      0.000w     14 calls
| JK: USO2AO                        :      0.017u      0.000s      0.000w     14 calls
| JK: JK                            :      0.050u      0.000s      0.025w     14 calls
| | DFH: compute_JK()               :      0.050u      0.000s      0.025w     14 calls
| | | DFH: Grabbing AOs             :      0.000u      0.000s      0.000w     14 calls
| | | DFH: compute_J                :      0.050u      0.000s      0.024w     14 calls
| JK: AO2USO                        :      0.000u      0.000s      0.000w     14 calls
HF: Form F                          :      0.000u      0.000s      0.000w     14 calls
HF: Form D                          :      0.000u      0.000s      0.000w     14 calls
HF: DIIS                            :      0.017u      0.000s      0.007w     13 calls
| DIISManager::add_entry            :      0.000u      0.000s      0.001w     13 calls
| DIISManager::extrapolate          :      0.000u      0.000s      0.002w     13 calls
| | bMatrix setup                   :      0.000u      0.000s      0.001w     13 calls
| | bMatrix pseudoinverse           :      0.000u      0.000s      0.000w     13 calls
| | New vector                      :      0.000u      0.000s      0.001w     13 calls
HF: Form C                          :      0.000u      0.000s      0.003w     13 calls
Grad: V T Perturb                   :      0.083u      0.000s      0.055w      1 calls
Grad: S                             :      0.000u      0.000s      0.001w      1 calls
Grad: JK                            :      2.000u      0.000s      1.210w      1 calls
| JKGrad: Amn                       :      0.300u      0.000s      0.182w      1 calls
| JKGrad: Awmn                      :      0.000u      0.000s      0.000w      1 calls
| JKGrad: AB                        :      0.300u      0.000s      0.187w      1 calls
| JKGrad: UV                        :      0.000u      0.000s      0.000w      1 calls
| JKGrad: ABx                       :      0.133u      0.000s      0.080w      1 calls
| JKGrad: Amnx                      :      1.233u      0.000s      0.739w      1 calls
Grad: XC                            :      1.567u      0.000s      0.936w      1 calls
| Properties                        :      0.700u      0.000s      0.396w   2949 calls
| Functional                        :      0.250u      0.000s      0.197w   2949 calls
| V_xc gradient                     :      0.617u      0.000s      0.337w   2949 calls

**************************************************************************************

Host: aaojha

Timers On : Fri May 14 09:10:13 2021
Timers Off: Fri May 14 09:10:23 2021

Wall Time:        9.99 seconds

                                                       Time (seconds)
Module                                       User      System        Wall        Calls
V: Grid                             :      1.300u      0.017s      0.793w      1 calls
DFH: sparsity prep                  :      0.017u      0.000s      0.013w      1 calls
DFH: initialize()                   :      0.650u      0.033s      0.419w      1 calls
DFH: AO Construction                :      0.283u      0.000s      0.168w      1 calls
DFH: AO-Met. Contraction            :      0.083u      0.000s      0.048w      1 calls
HF: Form core H                     :      0.000u      0.000s      0.010w      1 calls
HF: Form S/X                        :      0.000u      0.000s      0.000w      1 calls
HF: Guess                           :      0.267u      0.000s      0.163w      1 calls
SAD Guess                           :      0.250u      0.000s      0.155w      1 calls
HF: Form G                          :      8.650u      0.150s      5.276w     14 calls
RV: Form V                          :      8.633u      0.150s      5.250w     14 calls
Properties                          :      2.667u      0.050s      1.607w  44055 calls
Functional                          :      4.333u      0.067s      2.734w  44055 calls
V_xc                                :      2.400u      0.033s      1.395w  41118 calls
JK: D                               :      0.000u      0.000s      0.000w     14 calls
JK: USO2AO                          :      0.000u      0.000s      0.000w     14 calls
JK: JK                              :      0.017u      0.000s      0.025w     14 calls
DFH: compute_JK()                   :      0.017u      0.000s      0.025w     14 calls
DFH: Grabbing AOs                   :      0.000u      0.000s      0.000w     14 calls
DFH: compute_J                      :      0.017u      0.000s      0.025w     14 calls
JK: AO2USO                          :      0.000u      0.000s      0.000w     14 calls
HF: Form F                          :      0.000u      0.000s      0.000w     14 calls
HF: Form D                          :      0.000u      0.000s      0.000w     14 calls
HF: DIIS                            :      0.017u      0.000s      0.006w     13 calls
[...]
JKGrad: AB                          :      0.283u      0.000s      0.172w      1 calls
JKGrad: UV                          :      0.000u      0.000s      0.000w      1 calls
JKGrad: ABx                         :      0.133u      0.000s      0.078w      1 calls
JKGrad: Amnx                        :      1.233u      0.000s      0.742w      1 calls
Grad: XC                            :      1.433u      0.000s      0.863w      1 calls
V_xc gradient                       :      0.550u      0.000s      0.313w   2948 calls

--------------------------------------------------------------------------------------
V: Grid                             :      1.300u      0.033s      0.797w      1 calls
DFH: sparsity prep                  :      0.033u      0.000s      0.014w      1 calls
DFH: initialize()                   :      0.633u      0.050s      0.411w      1 calls
| DFH: AO Construction              :      0.250u      0.017s      0.165w      1 calls
| DFH: AO-Met. Contraction          :      0.083u      0.000s      0.049w      1 calls
HF: Form core H                     :      0.000u      0.000s      0.009w      1 calls
HF: Form S/X                        :      0.000u      0.000s      0.000w      1 calls
HF: Guess                           :      0.267u      0.000s      0.166w      1 calls
| SAD Guess                         :      0.250u      0.000s      0.159w      1 calls
HF: Form G                          :      8.550u      0.133s      5.227w     14 calls
| RV: Form V                        :      8.533u      0.133s      5.203w     14 calls
| | Properties                      :      2.067u      0.050s      1.222w  41272 calls
| | Functional                      :      3.867u      0.033s      2.527w  41272 calls
| | V_xc                            :      2.467u      0.050s      1.391w  41272 calls
| JK: D                             :      0.000u      0.000s      0.000w     14 calls
| JK: USO2AO                        :      0.000u      0.000s      0.000w     14 calls
| JK: JK                            :      0.017u      0.000s      0.023w     14 calls
| | DFH: compute_JK()               :      0.017u      0.000s      0.023w     14 calls
| | | DFH: Grabbing AOs             :      0.000u      0.000s      0.000w     14 calls
| | | DFH: compute_J                :      0.017u      0.000s      0.023w     14 calls
| JK: AO2USO                        :      0.000u      0.000s      0.000w     14 calls
HF: Form F                          :      0.000u      0.000s      0.000w     14 calls
HF: Form D                          :      0.000u      0.000s      0.000w     14 calls
HF: DIIS                            :      0.000u      0.000s      0.006w     13 calls
| DIISManager::add_entry            :      0.000u      0.000s      0.001w     13 calls
| DIISManager::extrapolate          :      0.000u      0.000s      0.002w     13 calls
| | bMatrix setup                   :      0.000u      0.000s      0.001w     13 calls
| | bMatrix pseudoinverse           :      0.000u      0.000s      0.000w     13 calls
| | New vector                      :      0.000u      0.000s      0.000w     13 calls
HF: Form C                          :      0.000u      0.000s      0.003w     13 calls
Grad: V T Perturb                   :      0.083u      0.000s      0.052w      1 calls
Grad: S                             :      0.000u      0.000s      0.001w      1 calls
Grad: JK                            :      1.967u      0.000s      1.193w      1 calls
| JKGrad: Amn                       :      0.300u      0.000s      0.178w      1 calls
| JKGrad: Awmn                      :      0.000u      0.000s      0.000w      1 calls
| JKGrad: AB                        :      0.283u      0.000s      0.172w      1 calls
| JKGrad: UV                        :      0.000u      0.000s      0.000w      1 calls
| JKGrad: ABx                       :      0.133u      0.000s      0.078w      1 calls
| JKGrad: Amnx                      :      1.233u      0.000s      0.742w      1 calls
Grad: XC                            :      1.433u      0.000s      0.863w      1 calls
| Properties                        :      0.567u      0.000s      0.363w   2948 calls
| Functional                        :      0.267u      0.000s      0.182w   2948 calls
| V_xc gradient                     :      0.550u      0.000s      0.313w   2948 calls

**************************************************************************************

Host: aaojha

Timers On : Fri May 14 09:10:43 2021
Timers Off: Fri May 14 09:10:53 2021

Wall Time:       10.05 seconds

                                                       Time (seconds)
Module                                       User      System        Wall        Calls
V: Grid                             :      1.283u      0.050s      0.794w      1 calls
DFH: sparsity prep                  :      0.017u      0.000s      0.014w      1 calls
DFH: initialize()                   :      0.683u      0.017s      0.421w      1 calls
DFH: AO Construction                :      0.267u      0.000s      0.166w      1 calls
DFH: AO-Met. Contraction            :      0.083u      0.000s      0.052w      1 calls
HF: Form core H                     :      0.000u      0.000s      0.002w      1 calls
HF: Form S/X                        :      0.000u      0.000s      0.001w      1 calls
HF: Guess                           :      0.317u      0.000s      0.182w      1 calls
SAD Guess                           :      0.283u      0.000s      0.164w      1 calls
HF: Form G                          :      8.567u      0.167s      5.265w     14 calls
RV: Form V                          :      8.517u      0.167s      5.240w     14 calls
Properties                          :      2.767u      0.050s      1.597w  44220 calls
Functional                          :      4.150u      0.083s      2.732w  44220 calls
V_xc                                :      2.250u      0.033s      1.399w  41272 calls
JK: D                               :      0.000u      0.000s      0.000w     14 calls
JK: USO2AO                          :      0.000u      0.000s      0.000w     14 calls
JK: JK                              :      0.050u      0.000s      0.024w     14 calls
DFH: compute_JK()                   :      0.050u      0.000s      0.024w     14 calls
DFH: Grabbing AOs                   :      0.000u      0.000s      0.000w     14 calls
DFH: compute_J                      :      0.050u      0.000s      0.024w     14 calls
JK: AO2USO                          :      0.000u      0.000s      0.000w     14 calls
HF: Form F                          :      0.000u      0.000s      0.000w     14 calls
HF: Form D                          :      0.000u      0.000s      0.000w     14 calls
HF: DIIS                            :      0.033u      0.000s      0.006w     13 calls
DIISManager::add_entry              :      0.000u      0.000s      0.001w     13 calls
DIISManager::extrapolate            :      0.017u      0.000s      0.001w     13 calls
bMatrix setup                       :      0.000u      0.000s      0.001w     13 calls
bMatrix pseudoinverse               :      0.017u      0.000s      0.000w     13 calls
New vector                          :      0.000u      0.000s      0.000w     13 calls
HF: Form C                          :      0.000u      0.000s      0.003w     13 calls
Grad: V T Perturb                   :      0.083u      0.000s      0.055w      1 calls
Grad: S                             :      0.000u      0.000s      0.001w      1 calls
Grad: JK                            :      2.033u      0.000s      1.229w      1 calls
JKGrad: Amn                         :      0.300u      0.000s      0.184w      1 calls
JKGrad: Awmn                        :      0.000u      0.000s      0.000w      1 calls
JKGrad: AB                          :      0.300u      0.000s      0.183w      1 calls
JKGrad: UV                          :      0.000u      0.000s      0.000w      1 calls
JKGrad: ABx                         :      0.133u      0.000s      0.080w      1 calls
JKGrad: Amnx                        :      1.267u      0.000s      0.759w      1 calls
Grad: XC                            :      1.433u      0.017s      0.871w      1 calls
V_xc gradient                       :      0.617u      0.017s      0.315w   2948 calls

--------------------------------------------------------------------------------------
V: Grid                             :      1.283u      0.050s      0.794w      1 calls
DFH: sparsity prep                  :      0.017u      0.000s      0.014w      1 calls
DFH: initialize()                   :      0.683u      0.017s      0.421w      1 calls
| DFH: AO Construction              :      0.267u      0.000s      0.166w      1 calls
| DFH: AO-Met. Contraction          :      0.083u      0.000s      0.052w      1 calls
HF: Form core H                     :      0.000u      0.000s      0.002w      1 calls
HF: Form S/X                        :      0.000u      0.000s      0.001w      1 calls
HF: Guess                           :      0.317u      0.000s      0.182w      1 calls
| SAD Guess                         :      0.283u      0.000s      0.164w      1 calls
HF: Form G                          :      8.567u      0.167s      5.265w     14 calls
| RV: Form V                        :      8.517u      0.167s      5.240w     14 calls
| | Properties                      :      2.150u      0.050s      1.230w  41272 calls
| | Functional                      :      3.950u      0.083s      2.550w  41272 calls
| | V_xc                            :      2.250u      0.033s      1.399w  41272 calls
| JK: D                             :      0.000u      0.000s      0.000w     14 calls
| JK: USO2AO                        :      0.000u      0.000s      0.000w     14 calls
| JK: JK                            :      0.050u      0.000s      0.024w     14 calls
| | DFH: compute_JK()               :      0.050u      0.000s      0.024w     14 calls
| | | DFH: Grabbing AOs             :      0.000u      0.000s      0.000w     14 calls
| | | DFH: compute_J                :      0.050u      0.000s      0.024w     14 calls
| JK: AO2USO                        :      0.000u      0.000s      0.000w     14 calls
HF: Form F                          :      0.000u      0.000s      0.000w     14 calls
HF: Form D                          :      0.000u      0.000s      0.000w     14 calls
HF: DIIS                            :      0.033u      0.000s      0.006w     13 calls
| DIISManager::add_entry            :      0.000u      0.000s      0.001w     13 calls
| DIISManager::extrapolate          :      0.017u      0.000s      0.001w     13 calls
| | bMatrix setup                   :      0.000u      0.000s      0.001w     13 calls
| | bMatrix pseudoinverse           :      0.017u      0.000s      0.000w     13 calls
| | New vector                      :      0.000u      0.000s      0.000w     13 calls
HF: Form C                          :      0.000u      0.000s      0.003w     13 calls
Grad: V T Perturb                   :      0.083u      0.000s      0.055w      1 calls
Grad: S                             :      0.000u      0.000s      0.001w      1 calls
Grad: JK                            :      2.033u      0.000s      1.229w      1 calls
| JKGrad: Amn                       :      0.300u      0.000s      0.184w      1 calls
| JKGrad: Awmn                      :      0.000u      0.000s      0.000w      1 calls
| JKGrad: AB                        :      0.300u      0.000s      0.183w      1 calls
| JKGrad: UV                        :      0.000u      0.000s      0.000w      1 calls
| JKGrad: ABx                       :      0.133u      0.000s      0.080w      1 calls
| JKGrad: Amnx                      :      1.267u      0.000s      0.759w      1 calls
Grad: XC                            :      1.433u      0.017s      0.871w      1 calls
| Properties                        :      0.617u      0.000s      0.367w   2948 calls
| Functional                        :      0.200u      0.000s      0.182w   2948 calls
| V_xc gradient                     :      0.617u      0.017s      0.315w   2948 calls

**************************************************************************************

Host: aaojha

Timers On : Fri May 14 09:10:54 2021
Timers Off: Fri May 14 09:11:04 2021

Wall Time:       10.05 seconds

                                                       Time (seconds)
Module                                       User      System        Wall        Calls
V: Grid                             :      1.300u      0.017s      0.790w      1 calls
DFH: sparsity prep                  :      0.017u      0.000s      0.014w      1 calls
DFH: initialize()                   :      0.683u      0.017s      0.419w      1 calls
DFH: AO Construction                :      0.267u      0.000s      0.166w      1 calls
DFH: AO-Met. Contraction            :      0.083u      0.000s      0.051w      1 calls
HF: Form core H                     :      0.000u      0.000s      0.000w      1 calls
HF: Form S/X                        :      0.000u      0.000s      0.000w      1 calls
HF: Guess                           :      0.283u      0.000s      0.172w      1 calls
SAD Guess                           :      0.283u      0.000s      0.165w      1 calls
HF: Form G                          :      8.733u      0.150s      5.324w     14 calls
RV: Form V                          :      8.650u      0.150s      5.298w     14 calls
Properties                          :      2.817u      0.017s      1.611w  44445 calls
Functional                          :      4.417u      0.067s      2.756w  44445 calls
V_xc                                :      2.067u      0.067s      1.409w  41482 calls
JK: D                               :      0.017u      0.000s      0.000w     14 calls
JK: USO2AO                          :      0.000u      0.000s      0.000w     14 calls
JK: JK                              :      0.067u      0.000s      0.026w     14 calls
DFH: compute_JK()                   :      0.067u      0.000s      0.026w     14 calls
DFH: Grabbing AOs                   :      0.000u      0.000s      0.000w     14 calls
DFH: compute_J                      :      0.067u      0.000s      0.025w     14 calls
JK: AO2USO                          :      0.000u      0.000s      0.000w     14 calls
HF: Form F                          :      0.000u      0.000s      0.000w     14 calls
HF: Form D                          :      0.000u      0.000s      0.000w     14 calls
HF: DIIS                            :      0.017u      0.000s      0.016w     13 calls
DIISManager::add_entry              :      0.000u      0.000s      0.001w     13 calls
DIISManager::extrapolate            :      0.000u      0.000s      0.011w     13 calls
bMatrix setup                       :      0.000u      0.000s      0.010w     13 calls
bMatrix pseudoinverse               :      0.000u      0.000s      0.000w     13 calls
New vector                          :      0.000u      0.000s      0.000w     13 calls
HF: Form C                          :      0.000u      0.000s      0.003w     13 calls
Grad: V T Perturb                   :      0.100u      0.000s      0.057w      1 calls
Grad: S                             :      0.000u      0.000s      0.001w      1 calls
Grad: JK                            :      1.933u      0.000s      1.164w      1 calls
JKGrad: Amn                         :      0.300u      0.000s      0.179w      1 calls
JKGrad: Awmn                        :      0.000u      0.000s      0.000w      1 calls
JKGrad: AB                          :      0.300u      0.000s      0.173w      1 calls
JKGrad: UV                          :      0.000u      0.000s      0.000w      1 calls
JKGrad: ABx                         :      0.117u      0.000s      0.079w      1 calls
JKGrad: Amnx                        :      1.200u      0.000s      0.717w      1 calls
Grad: XC                            :      1.417u      0.017s      0.863w      1 calls
V_xc gradient                       :      0.567u      0.000s      0.314w   2963 calls

--------------------------------------------------------------------------------------
V: Grid                             :      1.300u      0.017s      0.790w      1 calls
DFH: sparsity prep                  :      0.017u      0.000s      0.014w      1 calls
DFH: initialize()                   :      0.683u      0.017s      0.419w      1 calls
| DFH: AO Construction              :      0.267u      0.000s      0.166w      1 calls
| DFH: AO-Met. Contraction          :      0.083u      0.000s      0.051w      1 calls
HF: Form core H                     :      0.000u      0.000s      0.000w      1 calls
HF: Form S/X                        :      0.000u      0.000s      0.000w      1 calls
HF: Guess                           :      0.283u      0.000s      0.172w      1 calls
| SAD Guess                         :      0.283u      0.000s      0.165w      1 calls
HF: Form G                          :      8.733u      0.150s      5.324w     14 calls
| RV: Form V                        :      8.650u      0.150s      5.298w     14 calls
| | Properties                      :      2.233u      0.017s      1.249w  41482 calls
| | Functional                      :      4.183u      0.067s      2.575w  41482 calls
| | V_xc                            :      2.067u      0.067s      1.409w  41482 calls
| JK: D                             :      0.017u      0.000s      0.000w     14 calls
| JK: USO2AO                        :      0.000u      0.000s      0.000w     14 calls
| JK: JK                            :      0.067u      0.000s      0.026w     14 calls
| | DFH: compute_JK()               :      0.067u      0.000s      0.026w     14 calls
| | | DFH: Grabbing AOs             :      0.000u      0.000s      0.000w     14 calls
| | | DFH: compute_J                :      0.067u      0.000s      0.025w     14 calls
| JK: AO2USO                        :      0.000u      0.000s      0.000w     14 calls
HF: Form F                          :      0.000u      0.000s      0.000w     14 calls
HF: Form D                          :      0.000u      0.000s      0.000w     14 calls
HF: DIIS                            :      0.017u      0.000s      0.016w     13 calls
| DIISManager::add_entry            :      0.000u      0.000s      0.001w     13 calls
| DIISManager::extrapolate          :      0.000u      0.000s      0.011w     13 calls
| | bMatrix setup                   :      0.000u      0.000s      0.010w     13 calls
| | bMatrix pseudoinverse           :      0.000u      0.000s      0.000w     13 calls
| | New vector                      :      0.000u      0.000s      0.000w     13 calls
HF: Form C                          :      0.000u      0.000s      0.003w     13 calls
Grad: V T Perturb                   :      0.100u      0.000s      0.057w      1 calls
Grad: S                             :      0.000u      0.000s      0.001w      1 calls
Grad: JK                            :      1.933u      0.000s      1.164w      1 calls
| JKGrad: Amn                       :      0.300u      0.000s      0.179w      1 calls
| JKGrad: Awmn                      :      0.000u      0.000s      0.000w      1 calls
| JKGrad: AB                        :      0.300u      0.000s      0.173w      1 calls
| JKGrad: UV                        :      0.000u      0.000s      0.000w      1 calls
| JKGrad: ABx                       :      0.117u      0.000s      0.079w      1 calls
| JKGrad: Amnx                      :      1.200u      0.000s      0.717w      1 calls
Grad: XC                            :      1.417u      0.017s      0.863w      1 calls
| Properties                        :      0.583u      0.000s      0.362w   2963 calls
| Functional                        :      0.233u      0.000s      0.182w   2963 calls
| V_xc gradient                     :      0.567u      0.000s      0.314w   2963 calls

**************************************************************************************
