
    -----------------------------------------------------------------------
          Psi4: An Open-Source Ab Initio Electronic Structure Package
                               Psi4 1.3.2 release

                         Git: Rev {HEAD} ecbda83 


    R. M. Parrish, L. A. Burns, D. G. A. Smith, A. C. Simmonett,
    A. E. DePrince III, E. G. Hohenstein, U. Bozkaya, A. Yu. Sokolov,
    R. Di Remigio, R. M. Richard, J. F. Gonthier, A. M. James,
    H. R. McAlexander, A. Kumar, M. Saitow, X. Wang, B. P. Pritchard,
    P. Verma, H. F. Schaefer III, K. Patkowski, R. A. King, E. F. Valeev,
    F. A. Evangelista, J. M. Turney, T. D. Crawford, and C. D. Sherrill,
    J. Chem. Theory Comput. 13(7) pp 3185--3197 (2017).
    (doi: 10.1021/acs.jctc.7b00174)


                         Additional Contributions by
    P. Kraus, H. Kruse, M. H. Lechner, M. C. Schieber, R. A. Shaw,
    A. Alenaizan, R. Galvelis, Z. L. Glick, S. Lehtola, and J. P. Misiewicz

    -----------------------------------------------------------------------


    Psi4 started on: Friday, 14 May 2021 09:48AM

    Process ID: 9021
    Host:       aaojha
    PSIDATADIR: /home/aaojha/anaconda3/envs/torsiondrive/share/psi4
    Memory:     500.0 MiB
    Threads:    1
    
  ==> Input File <==

--------------------------------------------------------------------------
memory 50 GB
molecule {
1 1
C           0.1591259    -0.0304433    -0.0390404
C          -0.5607466    -1.1776653     0.4303803
C          -1.9796061    -1.1470392     0.4495761
C          -2.6765287     0.0152898     0.0077753
C          -1.9563891     1.1607667    -0.4420938
C          -0.5374193     1.1539756    -0.4480126
C           1.6748533    -0.0241835     0.0116711
N           2.3961520    -0.9777937    -0.6770827
N           2.3376597     0.9903495     0.6709798
H          -0.0160989    -2.0734948     0.7871339
H          -2.5421046    -2.0278106     0.8159747
H          -3.7846001     0.0310520     0.0195855
H          -2.5017640     2.0620654    -0.7837116
H           0.0247329     2.0403164    -0.8010926
H           3.4465989    -1.0499886    -0.6284094
H           1.8802604    -1.7229430    -1.2114003
H           3.3872825     1.0846666     0.6741781
H           1.7809000     1.6987248     1.2138620
}
set {
basis STO-3G
}
gradient('BLYP')
--------------------------------------------------------------------------

  Memory set to  46.566 GiB by Python driver.
gradient() will perform analytic gradient computation.

*** tstart() called on aaojha
*** at Fri May 14 09:48:58 2021

   => Loading Basis Set <=

    Name: STO-3G
    Role: ORBITAL
    Keyword: BASIS
    atoms 1-7   entry C          line    61 file /home/aaojha/anaconda3/envs/torsiondrive/share/psi4/basis/sto-3g.gbs 
    atoms 8-9   entry N          line    71 file /home/aaojha/anaconda3/envs/torsiondrive/share/psi4/basis/sto-3g.gbs 
    atoms 10-18 entry H          line    19 file /home/aaojha/anaconda3/envs/torsiondrive/share/psi4/basis/sto-3g.gbs 


         ---------------------------------------------------------
                                   SCF
               by Justin Turney, Rob Parrish, Andy Simmonett
                          and Daniel G. A. Smith
                              RKS Reference
                        1 Threads,  47683 MiB Core
         ---------------------------------------------------------

  ==> Geometry <==

    Molecular point group: c1
    Full point group: C1

    Geometry (in Angstrom), charge = 1, multiplicity = 1:

       Center              X                  Y                   Z               Mass       
    ------------   -----------------  -----------------  -----------------  -----------------
         C            0.180139841203    -0.027363850861    -0.036103472100    12.000000000000
         C           -0.539732658797    -1.174585850861     0.433317227900    12.000000000000
         C           -1.958592158797    -1.143959750861     0.452513027900    12.000000000000
         C           -2.655514758797     0.018369249139     0.010712227900    12.000000000000
         C           -1.935375158797     1.163846149139    -0.439156872100    12.000000000000
         C           -0.516405358797     1.157055049139    -0.445075672100    12.000000000000
         C            1.695867241203    -0.021104050861     0.014608027900    12.000000000000
         N            2.417165941203    -0.974714250861    -0.674145772100    14.003074004430
         N            2.358673641203     0.993428949139     0.673916727900    14.003074004430
         H            0.004915041203    -2.070415350861     0.790070827900     1.007825032230
         H           -2.521090658797    -2.024731150861     0.818911627900     1.007825032230
         H           -3.763586158797     0.034131449139     0.022522427900     1.007825032230
         H           -2.480750058797     2.065144849139    -0.780774672100     1.007825032230
         H            0.045746841203     2.043395849139    -0.798155672100     1.007825032230
         H            3.467612841203    -1.046909150861    -0.625472472100     1.007825032230
         H            1.901274341203    -1.719863550861    -1.208463372100     1.007825032230
         H            3.408296441203     1.087746049139     0.677115027900     1.007825032230
         H            1.801913941203     1.701804249139     1.216798927900     1.007825032230

  Running in c1 symmetry.

  Rotational constants: A =      0.11594  B =      0.03645  C =      0.03054 [cm^-1]
  Rotational constants: A =   3475.87855  B =   1092.67110  C =    915.56335 [MHz]
  Nuclear repulsion =  405.940900954153335

  Charge       = 1
  Multiplicity = 1
  Electrons    = 64
  Nalpha       = 32
  Nbeta        = 32

  ==> Algorithm <==

  SCF Algorithm Type is DF.
  DIIS enabled.
  MOM disabled.
  Fractional occupation disabled.
  Guess Type is SAD.
  Energy threshold   = 1.00e-08
  Density threshold  = 1.00e-08
  Integral threshold = 0.00e+00

  ==> Primary Basis <==

  Basis Set: STO-3G
    Blend: STO-3G
    Number of shells: 36
    Number of basis function: 54
    Number of Cartesian functions: 54
    Spherical Harmonics?: true
    Max angular momentum: 1

  ==> DFT Potential <==

   => Composite Functional: BLYP <= 

    BLYP GGA Exchange-Correlation Functional

    P.J. Stephens et. al., J. Phys. Chem., 98, 11623-11627, 1994
    B. Miehlich et. al., Chem. Phys. Lett., 157(3), 200-206 1989


    Deriv               =              1
    GGA                 =           TRUE
    Meta                =          FALSE

    Exchange Hybrid     =          FALSE
    MP2 Hybrid          =          FALSE

   => Exchange Functionals <=

    1.0000     XC_GGA_X_B88

   => Correlation Functionals <=

    1.0000     XC_GGA_C_LYP

   => Molecular Quadrature <=

    Radial Scheme          =       TREUTLER
    Pruning Scheme         =           FLAT
    Nuclear Scheme         =       TREUTLER

    BS radius alpha        =              1
    Pruning alpha          =              1
    Radial Points          =             75
    Spherical Points       =            302
    Total Points           =         395612
    Total Blocks           =           2960
    Max Points             =            256
    Max Functions          =             51

   => Loading Basis Set <=

    Name: (STO-3G AUX)
    Role: JKFIT
    Keyword: DF_BASIS_SCF
    atoms 1-7   entry C          line   203 file /home/aaojha/anaconda3/envs/torsiondrive/share/psi4/basis/def2-svp-jkfit.gbs 
    atoms 8-9   entry N          line   263 file /home/aaojha/anaconda3/envs/torsiondrive/share/psi4/basis/def2-svp-jkfit.gbs 
    atoms 10-18 entry H          line    23 file /home/aaojha/anaconda3/envs/torsiondrive/share/psi4/basis/def2-svp-jkfit.gbs 

  ==> Pre-Iterations <==

   -------------------------------------------------------
    Irrep   Nso     Nmo     Nalpha   Nbeta   Ndocc  Nsocc
   -------------------------------------------------------
     A         54      54       0       0       0       0
   -------------------------------------------------------
    Total      54      54      32      32      32       0
   -------------------------------------------------------

  ==> Integral Setup <==

  DFHelper Memory: AOs need 0.024 GiB; user supplied 34.424 GiB. Using in-core AOs.

  ==> MemDFJK: Density-Fitted J/K Matrices <==

    J tasked:                   Yes
    K tasked:                    No
    wK tasked:                   No
    OpenMP threads:               1
    Memory [MiB]:             35250
    Algorithm:                 Core
    Schwarz Cutoff:           1E-12
    Mask sparsity (%):       1.8519
    Fitting Condition:        1E-10

   => Auxiliary Basis Set <=

  Basis Set: (STO-3G AUX)
    Blend: DEF2-SVP-JKFIT
    Number of shells: 279
    Number of basis function: 841
    Number of Cartesian functions: 989
    Spherical Harmonics?: true
    Max angular momentum: 4

  Cached 100.0% of DFT collocation blocks in 0.501 [GiB].

  Minimum eigenvalue in the overlap matrix is 1.8793049706E-01.
  Using Symmetric Orthogonalization.

  SCF Guess: Superposition of Atomic Densities via on-the-fly atomic UHF.

  ==> Iterations <==

                           Total Energy        Delta E     RMS |[F,P]|

   @DF-RKS iter SAD:  -373.14358130580251   -3.73144e+02   0.00000e+00 
   @DF-RKS iter   1:  -376.48271598226165   -3.33913e+00   5.12236e-03 DIIS
   @DF-RKS iter   2:  -376.33488948429897    1.47826e-01   1.01398e-02 DIIS
   @DF-RKS iter   3:  -376.53361633070699   -1.98727e-01   1.56731e-03 DIIS
   @DF-RKS iter   4:  -376.53775857150231   -4.14224e-03   6.73706e-04 DIIS
   @DF-RKS iter   5:  -376.53872292051312   -9.64349e-04   1.66884e-04 DIIS
   @DF-RKS iter   6:  -376.53877806555272   -5.51450e-05   3.98907e-05 DIIS
   @DF-RKS iter   7:  -376.53878070173471   -2.63618e-06   1.59715e-05 DIIS
   @DF-RKS iter   8:  -376.53878112253108   -4.20796e-07   5.99208e-06 DIIS
   @DF-RKS iter   9:  -376.53878119317289   -7.06418e-08   1.79058e-06 DIIS
   @DF-RKS iter  10:  -376.53878119906665   -5.89375e-09   4.36884e-07 DIIS
   @DF-RKS iter  11:  -376.53878119947035   -4.03702e-10   1.24816e-07 DIIS
   @DF-RKS iter  12:  -376.53878119949798   -2.76259e-11   3.02794e-08 DIIS
   @DF-RKS iter  13:  -376.53878119950059   -2.61480e-12   7.11638e-09 DIIS
  Energy and wave function converged.


  ==> Post-Iterations <==

    Orbital Energies [Eh]
    ---------------------

    Doubly Occupied:                                                      

       1A    -14.129716     2A    -14.129564     3A    -10.096021  
       4A     -9.944513     5A     -9.918652     6A     -9.918200  
       7A     -9.906443     8A     -9.905097     9A     -9.904701  
      10A     -1.046606    11A     -0.968396    12A     -0.876428  
      13A     -0.801797    14A     -0.775342    15A     -0.736602  
      16A     -0.679060    17A     -0.662688    18A     -0.642307  
      19A     -0.627913    20A     -0.596605    21A     -0.568524  
      22A     -0.528803    23A     -0.515087    24A     -0.481619  
      25A     -0.480736    26A     -0.473045    27A     -0.415558  
      28A     -0.410909    29A     -0.404926    30A     -0.368924  
      31A     -0.319016    32A     -0.313233  

    Virtual:                                                              

      33A     -0.183173    34A     -0.105930    35A     -0.100620  
      36A      0.010218    37A      0.022471    38A      0.051018  
      39A      0.056120    40A      0.114830    41A      0.118902  
      42A      0.165008    43A      0.187560    44A      0.194910  
      45A      0.232503    46A      0.235871    47A      0.256169  
      48A      0.281333    49A      0.348649    50A      0.352460  
      51A      0.360069    52A      0.369894    53A      0.496016  
      54A      0.540398  

    Final Occupation by Irrep:
              A 
    DOCC [    32 ]

  @DF-RKS Final Energy:  -376.53878119950059

   => Energetics <=

    Nuclear Repulsion Energy =            405.9409009541533351
    One-Electron Energy =               -1302.8584108020775147
    Two-Electron Energy =                 574.6715626895958167
    DFT Exchange-Correlation Energy =     -54.2928340411722132
    Empirical Dispersion Energy =           0.0000000000000000
    VV10 Nonlocal Energy =                  0.0000000000000000
    Total Energy =                       -376.5387811995005904

Computation Completed


Properties will be evaluated at   0.000000,   0.000000,   0.000000 [a0]

Properties computed using the SCF density matrix

  Nuclear Dipole Moment: [e a0]
     X:     1.7339      Y:     0.0659      Z:     0.1055

  Electronic Dipole Moment: [e a0]
     X:     0.9873      Y:    -0.0794      Z:    -0.0363

  Dipole Moment: [e a0]
     X:     2.7212      Y:    -0.0136      Z:     0.0692     Total:     2.7221

  Dipole Moment: [D]
     X:     6.9166      Y:    -0.0345      Z:     0.1760     Total:     6.9189


*** tstop() called on aaojha at Fri May 14 09:49:05 2021
Module time:
	user time   =       6.94 seconds =       0.12 minutes
	system time =       0.18 seconds =       0.00 minutes
	total time  =          7 seconds =       0.12 minutes
Total time:
	user time   =       6.94 seconds =       0.12 minutes
	system time =       0.18 seconds =       0.00 minutes
	total time  =          7 seconds =       0.12 minutes

*** tstart() called on aaojha
*** at Fri May 14 09:49:05 2021


         ------------------------------------------------------------
                                   SCF GRAD                          
                          Rob Parrish, Justin Turney,                
                       Andy Simmonett, and Alex Sokolov              
         ------------------------------------------------------------

  ==> Geometry <==

    Molecular point group: c1
    Full point group: C1

    Geometry (in Angstrom), charge = 1, multiplicity = 1:

       Center              X                  Y                   Z               Mass       
    ------------   -----------------  -----------------  -----------------  -----------------
         C            0.180139841203    -0.027363850861    -0.036103472100    12.000000000000
         C           -0.539732658797    -1.174585850861     0.433317227900    12.000000000000
         C           -1.958592158797    -1.143959750861     0.452513027900    12.000000000000
         C           -2.655514758797     0.018369249139     0.010712227900    12.000000000000
         C           -1.935375158797     1.163846149139    -0.439156872100    12.000000000000
         C           -0.516405358797     1.157055049139    -0.445075672100    12.000000000000
         C            1.695867241203    -0.021104050861     0.014608027900    12.000000000000
         N            2.417165941203    -0.974714250861    -0.674145772100    14.003074004430
         N            2.358673641203     0.993428949139     0.673916727900    14.003074004430
         H            0.004915041203    -2.070415350861     0.790070827900     1.007825032230
         H           -2.521090658797    -2.024731150861     0.818911627900     1.007825032230
         H           -3.763586158797     0.034131449139     0.022522427900     1.007825032230
         H           -2.480750058797     2.065144849139    -0.780774672100     1.007825032230
         H            0.045746841203     2.043395849139    -0.798155672100     1.007825032230
         H            3.467612841203    -1.046909150861    -0.625472472100     1.007825032230
         H            1.901274341203    -1.719863550861    -1.208463372100     1.007825032230
         H            3.408296441203     1.087746049139     0.677115027900     1.007825032230
         H            1.801913941203     1.701804249139     1.216798927900     1.007825032230

  Nuclear repulsion =  405.940900954153278

  ==> Basis Set <==

  Basis Set: STO-3G
    Blend: STO-3G
    Number of shells: 36
    Number of basis function: 54
    Number of Cartesian functions: 54
    Spherical Harmonics?: true
    Max angular momentum: 1

  ==> DFJKGrad: Density-Fitted SCF Gradients <==

    Gradient:                    1
    J tasked:                  Yes
    K tasked:                   No
    wK tasked:                  No
    OpenMP threads:              1
    Integrals threads:           1
    Memory [MiB]:            35762
    Schwarz Cutoff:          0E+00
    Fitting Condition:       1E-10

   => Auxiliary Basis Set <=

  Basis Set: (STO-3G AUX)
    Blend: DEF2-SVP-JKFIT
    Number of shells: 279
    Number of basis function: 841
    Number of Cartesian functions: 989
    Spherical Harmonics?: true
    Max angular momentum: 4

  ==> DFT Potential <==

   => Composite Functional: BLYP <= 

    BLYP GGA Exchange-Correlation Functional

    P.J. Stephens et. al., J. Phys. Chem., 98, 11623-11627, 1994
    B. Miehlich et. al., Chem. Phys. Lett., 157(3), 200-206 1989


    Deriv               =              1
    GGA                 =           TRUE
    Meta                =          FALSE

    Exchange Hybrid     =          FALSE
    MP2 Hybrid          =          FALSE

   => Exchange Functionals <=

    1.0000     XC_GGA_X_B88

   => Correlation Functionals <=

    1.0000     XC_GGA_C_LYP

   => Molecular Quadrature <=

    Radial Scheme          =       TREUTLER
    Pruning Scheme         =           FLAT
    Nuclear Scheme         =       TREUTLER

    BS radius alpha        =              1
    Pruning alpha          =              1
    Radial Points          =             75
    Spherical Points       =            302
    Total Points           =         395612
    Total Blocks           =           2960
    Max Points             =            256
    Max Functions          =             51


  -Total Gradient:
     Atom            X                  Y                   Z
    ------   -----------------  -----------------  -----------------
       1        0.000305283765    -0.001362790097    -0.007840997488
       2       -0.000171630445     0.001815765970     0.004159324014
       3       -0.000022648402    -0.000033906624     0.000009728595
       4        0.000058370620     0.000001199096     0.000000894641
       5       -0.000032512901     0.000052405936    -0.000024480883
       6       -0.000019808231    -0.000035270114     0.000038142315
       7       -0.000268289656    -0.003183302380     0.007367999517
       8        0.000107522446     0.002754538214    -0.003708375267
       9        0.000054745444    -0.000146246405     0.000112832080
      10        0.000001196467     0.000002723699    -0.000006233171
      11       -0.000002630723    -0.000002997859     0.000001988156
      12        0.000004024283     0.000001913671     0.000000437668
      13       -0.000003601959     0.000005164354     0.000000949475
      14       -0.000007828187    -0.000005650829    -0.000007967036
      15       -0.000000219362     0.000030645805    -0.000018833474
      16        0.000000659641     0.000015450929    -0.000017667933
      17       -0.000004062166     0.000065802915    -0.000025421125
      18       -0.000002781820     0.000016306313    -0.000044102302


*** tstop() called on aaojha at Fri May 14 09:49:07 2021
Module time:
	user time   =       2.04 seconds =       0.03 minutes
	system time =       0.00 seconds =       0.00 minutes
	total time  =          2 seconds =       0.03 minutes
Total time:
	user time   =       8.98 seconds =       0.15 minutes
	system time =       0.18 seconds =       0.00 minutes
	total time  =          9 seconds =       0.15 minutes

    Psi4 stopped on: Friday, 14 May 2021 09:49AM
    Psi4 wall time for execution: 0:00:09.20

*** Psi4 exiting successfully. Buy a developer a beer!
