
    -----------------------------------------------------------------------
          Psi4: An Open-Source Ab Initio Electronic Structure Package
                               Psi4 1.3.2 release

                         Git: Rev {HEAD} ecbda83 


    R. M. Parrish, L. A. Burns, D. G. A. Smith, A. C. Simmonett,
    A. E. DePrince III, E. G. Hohenstein, U. Bozkaya, A. Yu. Sokolov,
    R. Di Remigio, R. M. Richard, J. F. Gonthier, A. M. James,
    H. R. McAlexander, A. Kumar, M. Saitow, X. Wang, B. P. Pritchard,
    P. Verma, H. F. Schaefer III, K. Patkowski, R. A. King, E. F. Valeev,
    F. A. Evangelista, J. M. Turney, T. D. Crawford, and C. D. Sherrill,
    J. Chem. Theory Comput. 13(7) pp 3185--3197 (2017).
    (doi: 10.1021/acs.jctc.7b00174)


                         Additional Contributions by
    P. Kraus, H. Kruse, M. H. Lechner, M. C. Schieber, R. A. Shaw,
    A. Alenaizan, R. Galvelis, Z. L. Glick, S. Lehtola, and J. P. Misiewicz

    -----------------------------------------------------------------------


    Psi4 started on: Friday, 14 May 2021 09:44AM

    Process ID: 4507
    Host:       aaojha
    PSIDATADIR: /home/aaojha/anaconda3/envs/torsiondrive/share/psi4
    Memory:     500.0 MiB
    Threads:    1
    
  ==> Input File <==

--------------------------------------------------------------------------
memory 50 GB
molecule {
1 1
C           0.1541917     0.0383964    -0.0314905
C          -0.5624117    -0.7866697    -0.9624153
C          -1.9801702    -0.8074947    -0.9280200
C          -2.6841636    -0.0092552     0.0212472
C          -1.9720679     0.8059043     0.9503088
C          -0.5541510     0.8233163     0.9394354
C           1.6639234     0.0174198    -0.0238296
N           2.3540969    -0.0545982     1.1703192
N           2.3664712     0.0057695    -1.2128442
H          -0.0145673    -1.4251069    -1.6826045
H          -2.5372823    -1.4513127    -1.6362881
H          -3.7923355    -0.0251410     0.0395661
H          -2.5238827     1.4272584     1.6823645
H          -0.0014250     1.4705406     1.6481140
H           3.4049695    -0.0118136     1.2249207
H           1.8187872    -0.1103128     2.0733445
H           3.4149214    -0.0819210    -1.2564995
H           1.8481423     0.1221912    -2.1198938
}
set {
basis STO-3G
}
gradient('BLYP')
--------------------------------------------------------------------------

  Memory set to  46.566 GiB by Python driver.
gradient() will perform analytic gradient computation.

*** tstart() called on aaojha
*** at Fri May 14 09:44:12 2021

   => Loading Basis Set <=

    Name: STO-3G
    Role: ORBITAL
    Keyword: BASIS
    atoms 1-7   entry C          line    61 file /home/aaojha/anaconda3/envs/torsiondrive/share/psi4/basis/sto-3g.gbs 
    atoms 8-9   entry N          line    71 file /home/aaojha/anaconda3/envs/torsiondrive/share/psi4/basis/sto-3g.gbs 
    atoms 10-18 entry H          line    19 file /home/aaojha/anaconda3/envs/torsiondrive/share/psi4/basis/sto-3g.gbs 


         ---------------------------------------------------------
                                   SCF
               by Justin Turney, Rob Parrish, Andy Simmonett
                          and Daniel G. A. Smith
                              RKS Reference
                        1 Threads,  47683 MiB Core
         ---------------------------------------------------------

  ==> Geometry <==

    Molecular point group: c1
    Full point group: C1

    Geometry (in Angstrom), charge = 1, multiplicity = 1:

       Center              X                  Y                   Z               Mass       
    ------------   -----------------  -----------------  -----------------  -----------------
         C            0.182981281809     0.036667190686    -0.022902249750    12.000000000000
         C           -0.533622118191    -0.788398909314    -0.953827049750    12.000000000000
         C           -1.951380618191    -0.809223909314    -0.919431749750    12.000000000000
         C           -2.655374018191    -0.010984409314     0.029835450250    12.000000000000
         C           -1.943278318191     0.804175090686     0.958897050250    12.000000000000
         C           -0.525361418191     0.821587090686     0.948023650250    12.000000000000
         C            1.692712981809     0.015690590686    -0.015241349750    12.000000000000
         N            2.382886481809    -0.056327409314     1.178907450250    14.003074004430
         N            2.395260781809     0.004040290686    -1.204255949750    14.003074004430
         H            0.014222281809    -1.426836109314    -1.674016249750     1.007825032230
         H           -2.508492718191    -1.453041909314    -1.627699849750     1.007825032230
         H           -3.763545918191    -0.026870209314     0.048154350250     1.007825032230
         H           -2.495093118191     1.425529190686     1.690952750250     1.007825032230
         H            0.027364581809     1.468811390686     1.656702250250     1.007825032230
         H            3.433759081809    -0.013542809314     1.233508950250     1.007825032230
         H            1.847576781809    -0.112042009314     2.081932750250     1.007825032230
         H            3.443710981809    -0.083650209314    -1.247911249750     1.007825032230
         H            1.876931881809     0.120461990686    -2.111305549750     1.007825032230

  Running in c1 symmetry.

  Rotational constants: A =      0.11593  B =      0.03731  C =      0.02994 [cm^-1]
  Rotational constants: A =   3475.45330  B =   1118.58590  C =    897.47596 [MHz]
  Nuclear repulsion =  406.309537993450647

  Charge       = 1
  Multiplicity = 1
  Electrons    = 64
  Nalpha       = 32
  Nbeta        = 32

  ==> Algorithm <==

  SCF Algorithm Type is DF.
  DIIS enabled.
  MOM disabled.
  Fractional occupation disabled.
  Guess Type is SAD.
  Energy threshold   = 1.00e-08
  Density threshold  = 1.00e-08
  Integral threshold = 0.00e+00

  ==> Primary Basis <==

  Basis Set: STO-3G
    Blend: STO-3G
    Number of shells: 36
    Number of basis function: 54
    Number of Cartesian functions: 54
    Spherical Harmonics?: true
    Max angular momentum: 1

  ==> DFT Potential <==

   => Composite Functional: BLYP <= 

    BLYP GGA Exchange-Correlation Functional

    P.J. Stephens et. al., J. Phys. Chem., 98, 11623-11627, 1994
    B. Miehlich et. al., Chem. Phys. Lett., 157(3), 200-206 1989


    Deriv               =              1
    GGA                 =           TRUE
    Meta                =          FALSE

    Exchange Hybrid     =          FALSE
    MP2 Hybrid          =          FALSE

   => Exchange Functionals <=

    1.0000     XC_GGA_X_B88

   => Correlation Functionals <=

    1.0000     XC_GGA_C_LYP

   => Molecular Quadrature <=

    Radial Scheme          =       TREUTLER
    Pruning Scheme         =           FLAT
    Nuclear Scheme         =       TREUTLER

    BS radius alpha        =              1
    Pruning alpha          =              1
    Radial Points          =             75
    Spherical Points       =            302
    Total Points           =         395428
    Total Blocks           =           2973
    Max Points             =            256
    Max Functions          =             51

   => Loading Basis Set <=

    Name: (STO-3G AUX)
    Role: JKFIT
    Keyword: DF_BASIS_SCF
    atoms 1-7   entry C          line   203 file /home/aaojha/anaconda3/envs/torsiondrive/share/psi4/basis/def2-svp-jkfit.gbs 
    atoms 8-9   entry N          line   263 file /home/aaojha/anaconda3/envs/torsiondrive/share/psi4/basis/def2-svp-jkfit.gbs 
    atoms 10-18 entry H          line    23 file /home/aaojha/anaconda3/envs/torsiondrive/share/psi4/basis/def2-svp-jkfit.gbs 

  ==> Pre-Iterations <==

   -------------------------------------------------------
    Irrep   Nso     Nmo     Nalpha   Nbeta   Ndocc  Nsocc
   -------------------------------------------------------
     A         54      54       0       0       0       0
   -------------------------------------------------------
    Total      54      54      32      32      32       0
   -------------------------------------------------------

  ==> Integral Setup <==

  DFHelper Memory: AOs need 0.024 GiB; user supplied 34.423 GiB. Using in-core AOs.

  ==> MemDFJK: Density-Fitted J/K Matrices <==

    J tasked:                   Yes
    K tasked:                    No
    wK tasked:                   No
    OpenMP threads:               1
    Memory [MiB]:             35248
    Algorithm:                 Core
    Schwarz Cutoff:           1E-12
    Mask sparsity (%):       1.9890
    Fitting Condition:        1E-10

   => Auxiliary Basis Set <=

  Basis Set: (STO-3G AUX)
    Blend: DEF2-SVP-JKFIT
    Number of shells: 279
    Number of basis function: 841
    Number of Cartesian functions: 989
    Spherical Harmonics?: true
    Max angular momentum: 4

  Cached 100.0% of DFT collocation blocks in 0.502 [GiB].

  Minimum eigenvalue in the overlap matrix is 1.8813616420E-01.
  Using Symmetric Orthogonalization.

  SCF Guess: Superposition of Atomic Densities via on-the-fly atomic UHF.

  ==> Iterations <==

                           Total Energy        Delta E     RMS |[F,P]|

   @DF-RKS iter SAD:  -373.14495115107184   -3.73145e+02   0.00000e+00 
   @DF-RKS iter   1:  -376.48595190065976   -3.34100e+00   5.08367e-03 DIIS
   @DF-RKS iter   2:  -376.34275756691193    1.43194e-01   9.95344e-03 DIIS
   @DF-RKS iter   3:  -376.53553276337743   -1.92775e-01   1.63052e-03 DIIS
   @DF-RKS iter   4:  -376.54010593281737   -4.57317e-03   6.81331e-04 DIIS
   @DF-RKS iter   5:  -376.54110195840258   -9.96026e-04   1.60624e-04 DIIS
   @DF-RKS iter   6:  -376.54115232744005   -5.03690e-05   4.29216e-05 DIIS
   @DF-RKS iter   7:  -376.54115553363056   -3.20619e-06   1.39970e-05 DIIS
   @DF-RKS iter   8:  -376.54115585595719   -3.22327e-07   5.70504e-06 DIIS
   @DF-RKS iter   9:  -376.54115592231426   -6.63571e-08   1.41203e-06 DIIS
   @DF-RKS iter  10:  -376.54115592560174   -3.28748e-09   5.32643e-07 DIIS
   @DF-RKS iter  11:  -376.54115592623850   -6.36760e-10   9.67547e-08 DIIS
   @DF-RKS iter  12:  -376.54115592625453   -1.60298e-11   3.65272e-08 DIIS
   @DF-RKS iter  13:  -376.54115592625760   -3.06954e-12   8.62280e-09 DIIS
  Energy and wave function converged.


  ==> Post-Iterations <==

    Orbital Energies [Eh]
    ---------------------

    Doubly Occupied:                                                      

       1A    -14.125458     2A    -14.125164     3A    -10.093383  
       4A     -9.948253     5A     -9.922395     6A     -9.921942  
       7A     -9.910621     8A     -9.908542     9A     -9.908277  
      10A     -1.043713    11A     -0.965276    12A     -0.878861  
      13A     -0.803582    14A     -0.778583    15A     -0.736455  
      16A     -0.678150    17A     -0.664885    18A     -0.638654  
      19A     -0.629945    20A     -0.594664    21A     -0.569679  
      22A     -0.532619    23A     -0.513283    24A     -0.484743  
      25A     -0.484062    26A     -0.476596    27A     -0.416877  
      28A     -0.414359    29A     -0.408084    30A     -0.365332  
      31A     -0.321980    32A     -0.316496  

    Virtual:                                                              

      33A     -0.184702    34A     -0.103637    35A     -0.099093  
      36A      0.012126    37A      0.023286    38A      0.051845  
      39A      0.057893    40A      0.115066    41A      0.121829  
      42A      0.161399    43A      0.185861    44A      0.191041  
      45A      0.224497    46A      0.232203    47A      0.257409  
      48A      0.278983    49A      0.348757    50A      0.349633  
      51A      0.357683    52A      0.371378    53A      0.493568  
      54A      0.536938  

    Final Occupation by Irrep:
              A 
    DOCC [    32 ]

  @DF-RKS Final Energy:  -376.54115592625760

   => Energetics <=

    Nuclear Repulsion Energy =            406.3095379934506468
    One-Electron Energy =               -1303.5321867942157041
    Two-Electron Energy =                 574.9752176317985004
    DFT Exchange-Correlation Energy =     -54.2937247572910593
    Empirical Dispersion Energy =           0.0000000000000000
    VV10 Nonlocal Energy =                  0.0000000000000000
    Total Energy =                       -376.5411559262575452

Computation Completed


Properties will be evaluated at   0.000000,   0.000000,   0.000000 [a0]

Properties computed using the SCF density matrix

  Nuclear Dipole Moment: [e a0]
     X:     1.7452      Y:    -0.0947      Z:     0.0472

  Electronic Dipole Moment: [e a0]
     X:     0.8635      Y:     0.0891      Z:    -0.0501

  Dipole Moment: [e a0]
     X:     2.6087      Y:    -0.0056      Z:    -0.0029     Total:     2.6087

  Dipole Moment: [D]
     X:     6.6307      Y:    -0.0141      Z:    -0.0073     Total:     6.6308


*** tstop() called on aaojha at Fri May 14 09:44:19 2021
Module time:
	user time   =       6.90 seconds =       0.12 minutes
	system time =       0.18 seconds =       0.00 minutes
	total time  =          7 seconds =       0.12 minutes
Total time:
	user time   =       6.90 seconds =       0.12 minutes
	system time =       0.18 seconds =       0.00 minutes
	total time  =          7 seconds =       0.12 minutes

*** tstart() called on aaojha
*** at Fri May 14 09:44:19 2021


         ------------------------------------------------------------
                                   SCF GRAD                          
                          Rob Parrish, Justin Turney,                
                       Andy Simmonett, and Alex Sokolov              
         ------------------------------------------------------------

  ==> Geometry <==

    Molecular point group: c1
    Full point group: C1

    Geometry (in Angstrom), charge = 1, multiplicity = 1:

       Center              X                  Y                   Z               Mass       
    ------------   -----------------  -----------------  -----------------  -----------------
         C            0.182981281809     0.036667190686    -0.022902249750    12.000000000000
         C           -0.533622118191    -0.788398909314    -0.953827049750    12.000000000000
         C           -1.951380618191    -0.809223909314    -0.919431749750    12.000000000000
         C           -2.655374018191    -0.010984409314     0.029835450250    12.000000000000
         C           -1.943278318191     0.804175090686     0.958897050250    12.000000000000
         C           -0.525361418191     0.821587090686     0.948023650250    12.000000000000
         C            1.692712981809     0.015690590686    -0.015241349750    12.000000000000
         N            2.382886481809    -0.056327409314     1.178907450250    14.003074004430
         N            2.395260781809     0.004040290686    -1.204255949750    14.003074004430
         H            0.014222281809    -1.426836109314    -1.674016249750     1.007825032230
         H           -2.508492718191    -1.453041909314    -1.627699849750     1.007825032230
         H           -3.763545918191    -0.026870209314     0.048154350250     1.007825032230
         H           -2.495093118191     1.425529190686     1.690952750250     1.007825032230
         H            0.027364581809     1.468811390686     1.656702250250     1.007825032230
         H            3.433759081809    -0.013542809314     1.233508950250     1.007825032230
         H            1.847576781809    -0.112042009314     2.081932750250     1.007825032230
         H            3.443710981809    -0.083650209314    -1.247911249750     1.007825032230
         H            1.876931881809     0.120461990686    -2.111305549750     1.007825032230

  Nuclear repulsion =  406.309537993450647

  ==> Basis Set <==

  Basis Set: STO-3G
    Blend: STO-3G
    Number of shells: 36
    Number of basis function: 54
    Number of Cartesian functions: 54
    Spherical Harmonics?: true
    Max angular momentum: 1

  ==> DFJKGrad: Density-Fitted SCF Gradients <==

    Gradient:                    1
    J tasked:                  Yes
    K tasked:                   No
    wK tasked:                  No
    OpenMP threads:              1
    Integrals threads:           1
    Memory [MiB]:            35762
    Schwarz Cutoff:          0E+00
    Fitting Condition:       1E-10

   => Auxiliary Basis Set <=

  Basis Set: (STO-3G AUX)
    Blend: DEF2-SVP-JKFIT
    Number of shells: 279
    Number of basis function: 841
    Number of Cartesian functions: 989
    Spherical Harmonics?: true
    Max angular momentum: 4

  ==> DFT Potential <==

   => Composite Functional: BLYP <= 

    BLYP GGA Exchange-Correlation Functional

    P.J. Stephens et. al., J. Phys. Chem., 98, 11623-11627, 1994
    B. Miehlich et. al., Chem. Phys. Lett., 157(3), 200-206 1989


    Deriv               =              1
    GGA                 =           TRUE
    Meta                =          FALSE

    Exchange Hybrid     =          FALSE
    MP2 Hybrid          =          FALSE

   => Exchange Functionals <=

    1.0000     XC_GGA_X_B88

   => Correlation Functionals <=

    1.0000     XC_GGA_C_LYP

   => Molecular Quadrature <=

    Radial Scheme          =       TREUTLER
    Pruning Scheme         =           FLAT
    Nuclear Scheme         =       TREUTLER

    BS radius alpha        =              1
    Pruning alpha          =              1
    Radial Points          =             75
    Spherical Points       =            302
    Total Points           =         395428
    Total Blocks           =           2973
    Max Points             =            256
    Max Functions          =             51


  -Total Gradient:
     Atom            X                  Y                   Z
    ------   -----------------  -----------------  -----------------
       1        0.000086643454     0.001749405039    -0.002964331065
       2       -0.000118378644    -0.002015386142     0.001991208819
       3       -0.000188497345    -0.000201073859    -0.000213000462
       4        0.000426332317     0.000001204157    -0.000007986408
       5       -0.000138872774     0.000153542390     0.000183636618
       6       -0.000060442387    -0.000071061949    -0.000041805924
       7       -0.000107868175     0.003324983147     0.001139799262
       8        0.000051279223    -0.003082068501    -0.000135180539
       9        0.000085117815     0.000144562628     0.000232706846
      10       -0.000020015487     0.000005826620    -0.000002576412
      11        0.000003991308    -0.000021585670    -0.000026782616
      12        0.000033590106    -0.000001702514    -0.000005890083
      13        0.000009575921     0.000018811133     0.000026686914
      14       -0.000026851781     0.000024860456    -0.000007292688
      15        0.000022132187     0.000047508406    -0.000098927527
      16       -0.000014083127     0.000033126827     0.000006800615
      17       -0.000005750532    -0.000053660963    -0.000067372434
      18       -0.000011146642    -0.000060616448     0.000013796427


*** tstop() called on aaojha at Fri May 14 09:44:21 2021
Module time:
	user time   =       1.98 seconds =       0.03 minutes
	system time =       0.00 seconds =       0.00 minutes
	total time  =          2 seconds =       0.03 minutes
Total time:
	user time   =       8.88 seconds =       0.15 minutes
	system time =       0.18 seconds =       0.00 minutes
	total time  =          9 seconds =       0.15 minutes

    Psi4 stopped on: Friday, 14 May 2021 09:44AM
    Psi4 wall time for execution: 0:00:09.12

*** Psi4 exiting successfully. Buy a developer a beer!
