
    -----------------------------------------------------------------------
          Psi4: An Open-Source Ab Initio Electronic Structure Package
                               Psi4 1.3.2 release

                         Git: Rev {HEAD} ecbda83 


    R. M. Parrish, L. A. Burns, D. G. A. Smith, A. C. Simmonett,
    A. E. DePrince III, E. G. Hohenstein, U. Bozkaya, A. Yu. Sokolov,
    R. Di Remigio, R. M. Richard, J. F. Gonthier, A. M. James,
    H. R. McAlexander, A. Kumar, M. Saitow, X. Wang, B. P. Pritchard,
    P. Verma, H. F. Schaefer III, K. Patkowski, R. A. King, E. F. Valeev,
    F. A. Evangelista, J. M. Turney, T. D. Crawford, and C. D. Sherrill,
    J. Chem. Theory Comput. 13(7) pp 3185--3197 (2017).
    (doi: 10.1021/acs.jctc.7b00174)


                         Additional Contributions by
    P. Kraus, H. Kruse, M. H. Lechner, M. C. Schieber, R. A. Shaw,
    A. Alenaizan, R. Galvelis, Z. L. Glick, S. Lehtola, and J. P. Misiewicz

    -----------------------------------------------------------------------


    Psi4 started on: Friday, 14 May 2021 09:50AM

    Process ID: 9600
    Host:       aaojha
    PSIDATADIR: /home/aaojha/anaconda3/envs/torsiondrive/share/psi4
    Memory:     500.0 MiB
    Threads:    1
    
  ==> Input File <==

--------------------------------------------------------------------------
memory 50 GB
molecule {
1 1
C           0.1511714    -0.0010614     0.0034014
C          -0.5563556    -1.0346896     0.6924152
C          -1.9771736    -1.0227905     0.6803185
C          -2.6799502     0.0057352    -0.0099767
C          -1.9657315     1.0309234    -0.6934389
C          -0.5448001     1.0358069    -0.6923875
C           1.6824865    -0.0055789     0.0101579
N           2.3710498    -0.6707815    -0.9791986
N           2.3687163     0.6576757     1.0024755
H          -0.0071178    -1.8326637     1.2283926
H          -2.5341291    -1.8190990     1.2113772
H          -3.7877657     0.0084266    -0.0151872
H          -2.5137964     1.8299482    -1.2296399
H           0.0133579     1.8314849    -1.2225355
H           3.4243503    -0.7119169    -1.0272899
H           1.8285392    -1.1728916    -1.7290755
H           3.4220465     0.6882520     1.0577090
H           1.8253314     1.1618375     1.7503657
}
set {
basis STO-3G
}
gradient('BLYP')
--------------------------------------------------------------------------

  Memory set to  46.566 GiB by Python driver.
gradient() will perform analytic gradient computation.

*** tstart() called on aaojha
*** at Fri May 14 09:50:58 2021

   => Loading Basis Set <=

    Name: STO-3G
    Role: ORBITAL
    Keyword: BASIS
    atoms 1-7   entry C          line    61 file /home/aaojha/anaconda3/envs/torsiondrive/share/psi4/basis/sto-3g.gbs 
    atoms 8-9   entry N          line    71 file /home/aaojha/anaconda3/envs/torsiondrive/share/psi4/basis/sto-3g.gbs 
    atoms 10-18 entry H          line    19 file /home/aaojha/anaconda3/envs/torsiondrive/share/psi4/basis/sto-3g.gbs 


         ---------------------------------------------------------
                                   SCF
               by Justin Turney, Rob Parrish, Andy Simmonett
                          and Daniel G. A. Smith
                              RKS Reference
                        1 Threads,  47683 MiB Core
         ---------------------------------------------------------

  ==> Geometry <==

    Molecular point group: c1
    Full point group: C1

    Geometry (in Angstrom), charge = 1, multiplicity = 1:

       Center              X                  Y                   Z               Mass       
    ------------   -----------------  -----------------  -----------------  -----------------
         C            0.172885354855    -0.000234383243     0.001451128703    12.000000000000
         C           -0.534641645145    -1.033862583243     0.690464928703    12.000000000000
         C           -1.955459645145    -1.021963483243     0.678368228703    12.000000000000
         C           -2.658236245145     0.006562216757    -0.011926971297    12.000000000000
         C           -1.944017545145     1.031750416757    -0.695389171297    12.000000000000
         C           -0.523086145145     1.036633916757    -0.694337771297    12.000000000000
         C            1.704200454855    -0.004751883243     0.008207628703    12.000000000000
         N            2.392763754855    -0.669954483243    -0.981148871297    14.003074004430
         N            2.390430254855     0.658502716757     1.000525228703    14.003074004430
         H            0.014596154855    -1.831836683243     1.226442328703     1.007825032230
         H           -2.512415145145    -1.818271983243     1.209426928703     1.007825032230
         H           -3.766051745145     0.009253616757    -0.017137471297     1.007825032230
         H           -2.492082445145     1.830775216757    -1.231590171297     1.007825032230
         H            0.035071854855     1.832311916757    -1.224485771297     1.007825032230
         H            3.446064254855    -0.711089883243    -1.029240171297     1.007825032230
         H            1.850253154855    -1.172064583243    -1.731025771297     1.007825032230
         H            3.443760454855     0.689079016757     1.055758728703     1.007825032230
         H            1.847045354855     1.162664516757     1.748415428703     1.007825032230

  Running in c1 symmetry.

  Rotational constants: A =      0.11607  B =      0.03456  C =      0.03185 [cm^-1]
  Rotational constants: A =   3479.56382  B =   1036.13486  C =    954.91203 [MHz]
  Nuclear repulsion =  405.203831946566993

  Charge       = 1
  Multiplicity = 1
  Electrons    = 64
  Nalpha       = 32
  Nbeta        = 32

  ==> Algorithm <==

  SCF Algorithm Type is DF.
  DIIS enabled.
  MOM disabled.
  Fractional occupation disabled.
  Guess Type is SAD.
  Energy threshold   = 1.00e-08
  Density threshold  = 1.00e-08
  Integral threshold = 0.00e+00

  ==> Primary Basis <==

  Basis Set: STO-3G
    Blend: STO-3G
    Number of shells: 36
    Number of basis function: 54
    Number of Cartesian functions: 54
    Spherical Harmonics?: true
    Max angular momentum: 1

  ==> DFT Potential <==

   => Composite Functional: BLYP <= 

    BLYP GGA Exchange-Correlation Functional

    P.J. Stephens et. al., J. Phys. Chem., 98, 11623-11627, 1994
    B. Miehlich et. al., Chem. Phys. Lett., 157(3), 200-206 1989


    Deriv               =              1
    GGA                 =           TRUE
    Meta                =          FALSE

    Exchange Hybrid     =          FALSE
    MP2 Hybrid          =          FALSE

   => Exchange Functionals <=

    1.0000     XC_GGA_X_B88

   => Correlation Functionals <=

    1.0000     XC_GGA_C_LYP

   => Molecular Quadrature <=

    Radial Scheme          =       TREUTLER
    Pruning Scheme         =           FLAT
    Nuclear Scheme         =       TREUTLER

    BS radius alpha        =              1
    Pruning alpha          =              1
    Radial Points          =             75
    Spherical Points       =            302
    Total Points           =         395880
    Total Blocks           =           2963
    Max Points             =            256
    Max Functions          =             51

   => Loading Basis Set <=

    Name: (STO-3G AUX)
    Role: JKFIT
    Keyword: DF_BASIS_SCF
    atoms 1-7   entry C          line   203 file /home/aaojha/anaconda3/envs/torsiondrive/share/psi4/basis/def2-svp-jkfit.gbs 
    atoms 8-9   entry N          line   263 file /home/aaojha/anaconda3/envs/torsiondrive/share/psi4/basis/def2-svp-jkfit.gbs 
    atoms 10-18 entry H          line    23 file /home/aaojha/anaconda3/envs/torsiondrive/share/psi4/basis/def2-svp-jkfit.gbs 

  ==> Pre-Iterations <==

   -------------------------------------------------------
    Irrep   Nso     Nmo     Nalpha   Nbeta   Ndocc  Nsocc
   -------------------------------------------------------
     A         54      54       0       0       0       0
   -------------------------------------------------------
    Total      54      54      32      32      32       0
   -------------------------------------------------------

  ==> Integral Setup <==

  DFHelper Memory: AOs need 0.024 GiB; user supplied 34.424 GiB. Using in-core AOs.

  ==> MemDFJK: Density-Fitted J/K Matrices <==

    J tasked:                   Yes
    K tasked:                    No
    wK tasked:                   No
    OpenMP threads:               1
    Memory [MiB]:             35250
    Algorithm:                 Core
    Schwarz Cutoff:           1E-12
    Mask sparsity (%):       1.8519
    Fitting Condition:        1E-10

   => Auxiliary Basis Set <=

  Basis Set: (STO-3G AUX)
    Blend: DEF2-SVP-JKFIT
    Number of shells: 279
    Number of basis function: 841
    Number of Cartesian functions: 989
    Spherical Harmonics?: true
    Max angular momentum: 4

  Cached 100.0% of DFT collocation blocks in 0.501 [GiB].

  Minimum eigenvalue in the overlap matrix is 1.8747116099E-01.
  Using Symmetric Orthogonalization.

  SCF Guess: Superposition of Atomic Densities via on-the-fly atomic UHF.

  ==> Iterations <==

                           Total Energy        Delta E     RMS |[F,P]|

   @DF-RKS iter SAD:  -373.14374510997345   -3.73144e+02   0.00000e+00 
   @DF-RKS iter   1:  -376.47785470209965   -3.33411e+00   5.17735e-03 DIIS
   @DF-RKS iter   2:  -376.32428890357096    1.53566e-01   1.04315e-02 DIIS
   @DF-RKS iter   3:  -376.53053380543759   -2.06245e-01   1.43151e-03 DIIS
   @DF-RKS iter   4:  -376.53387110780614   -3.33730e-03   6.17702e-04 DIIS
   @DF-RKS iter   5:  -376.53467764302229   -8.06535e-04   1.69842e-04 DIIS
   @DF-RKS iter   6:  -376.53473613290396   -5.84899e-05   2.76092e-05 DIIS
   @DF-RKS iter   7:  -376.53473713956532   -1.00666e-06   1.71028e-05 DIIS
   @DF-RKS iter   8:  -376.53473766324464   -5.23679e-07   3.65936e-06 DIIS
   @DF-RKS iter   9:  -376.53473768998686   -2.67422e-08   7.86298e-07 DIIS
   @DF-RKS iter  10:  -376.53473769073832   -7.51470e-10   4.69293e-07 DIIS
   @DF-RKS iter  11:  -376.53473769111918   -3.80851e-10   1.71639e-07 DIIS
   @DF-RKS iter  12:  -376.53473769117488   -5.57066e-11   2.81456e-08 DIIS
   @DF-RKS iter  13:  -376.53473769117613   -1.25056e-12   5.63031e-09 DIIS
  Energy and wave function converged.


  ==> Post-Iterations <==

    Orbital Energies [Eh]
    ---------------------

    Doubly Occupied:                                                      

       1A    -14.138340     2A    -14.138241     3A    -10.102650  
       4A     -9.938255     5A     -9.911943     6A     -9.911905  
       7A     -9.899056     8A     -9.898720     9A     -9.897375  
      10A     -1.053035    11A     -0.974660    12A     -0.871867  
      13A     -0.798734    14A     -0.769541    15A     -0.738049  
      16A     -0.681479    17A     -0.662410    18A     -0.645299  
      19A     -0.625309    20A     -0.601786    21A     -0.565973  
      22A     -0.522821    23A     -0.517222    24A     -0.477109  
      25A     -0.475361    26A     -0.468989    27A     -0.411905  
      28A     -0.404716    29A     -0.399518    30A     -0.376240  
      31A     -0.312768    32A     -0.307180  

    Virtual:                                                              

      33A     -0.183159    34A     -0.112664    35A     -0.094982  
      36A      0.005051    37A      0.022788    38A      0.041815  
      39A      0.058543    40A      0.110138    41A      0.111974  
      42A      0.170018    43A      0.193940    44A      0.200669  
      45A      0.242502    46A      0.247445    47A      0.253436  
      48A      0.281673    49A      0.352017    50A      0.357412  
      51A      0.364697    52A      0.369757    53A      0.502051  
      54A      0.547492  

    Final Occupation by Irrep:
              A 
    DOCC [    32 ]

  @DF-RKS Final Energy:  -376.53473769117613

   => Energetics <=

    Nuclear Repulsion Energy =            405.2038319465669929
    One-Electron Energy =               -1301.4741796674184116
    Two-Electron Energy =                 574.0269828812757851
    DFT Exchange-Correlation Energy =     -54.2913728516004852
    Empirical Dispersion Energy =           0.0000000000000000
    VV10 Nonlocal Energy =                  0.0000000000000000
    Total Energy =                       -376.5347376911761330

Computation Completed


Properties will be evaluated at   0.000000,   0.000000,   0.000000 [a0]

Properties computed using the SCF density matrix

  Nuclear Dipole Moment: [e a0]
     X:     1.7357      Y:    -0.0086      Z:     0.0061

  Electronic Dipole Moment: [e a0]
     X:     1.2203      Y:    -0.0025      Z:     0.0078

  Dipole Moment: [e a0]
     X:     2.9560      Y:    -0.0110      Z:     0.0139     Total:     2.9560

  Dipole Moment: [D]
     X:     7.5134      Y:    -0.0281      Z:     0.0354     Total:     7.5135


*** tstop() called on aaojha at Fri May 14 09:51:05 2021
Module time:
	user time   =       6.97 seconds =       0.12 minutes
	system time =       0.20 seconds =       0.00 minutes
	total time  =          7 seconds =       0.12 minutes
Total time:
	user time   =       6.97 seconds =       0.12 minutes
	system time =       0.20 seconds =       0.00 minutes
	total time  =          7 seconds =       0.12 minutes

*** tstart() called on aaojha
*** at Fri May 14 09:51:05 2021


         ------------------------------------------------------------
                                   SCF GRAD                          
                          Rob Parrish, Justin Turney,                
                       Andy Simmonett, and Alex Sokolov              
         ------------------------------------------------------------

  ==> Geometry <==

    Molecular point group: c1
    Full point group: C1

    Geometry (in Angstrom), charge = 1, multiplicity = 1:

       Center              X                  Y                   Z               Mass       
    ------------   -----------------  -----------------  -----------------  -----------------
         C            0.172885354855    -0.000234383243     0.001451128703    12.000000000000
         C           -0.534641645145    -1.033862583243     0.690464928703    12.000000000000
         C           -1.955459645145    -1.021963483243     0.678368228703    12.000000000000
         C           -2.658236245145     0.006562216757    -0.011926971297    12.000000000000
         C           -1.944017545145     1.031750416757    -0.695389171297    12.000000000000
         C           -0.523086145145     1.036633916757    -0.694337771297    12.000000000000
         C            1.704200454855    -0.004751883243     0.008207628703    12.000000000000
         N            2.392763754855    -0.669954483243    -0.981148871297    14.003074004430
         N            2.390430254855     0.658502716757     1.000525228703    14.003074004430
         H            0.014596154855    -1.831836683243     1.226442328703     1.007825032230
         H           -2.512415145145    -1.818271983243     1.209426928703     1.007825032230
         H           -3.766051745145     0.009253616757    -0.017137471297     1.007825032230
         H           -2.492082445145     1.830775216757    -1.231590171297     1.007825032230
         H            0.035071854855     1.832311916757    -1.224485771297     1.007825032230
         H            3.446064254855    -0.711089883243    -1.029240171297     1.007825032230
         H            1.850253154855    -1.172064583243    -1.731025771297     1.007825032230
         H            3.443760454855     0.689079016757     1.055758728703     1.007825032230
         H            1.847045354855     1.162664516757     1.748415428703     1.007825032230

  Nuclear repulsion =  405.203831946566993

  ==> Basis Set <==

  Basis Set: STO-3G
    Blend: STO-3G
    Number of shells: 36
    Number of basis function: 54
    Number of Cartesian functions: 54
    Spherical Harmonics?: true
    Max angular momentum: 1

  ==> DFJKGrad: Density-Fitted SCF Gradients <==

    Gradient:                    1
    J tasked:                  Yes
    K tasked:                   No
    wK tasked:                  No
    OpenMP threads:              1
    Integrals threads:           1
    Memory [MiB]:            35762
    Schwarz Cutoff:          0E+00
    Fitting Condition:       1E-10

   => Auxiliary Basis Set <=

  Basis Set: (STO-3G AUX)
    Blend: DEF2-SVP-JKFIT
    Number of shells: 279
    Number of basis function: 841
    Number of Cartesian functions: 989
    Spherical Harmonics?: true
    Max angular momentum: 4

  ==> DFT Potential <==

   => Composite Functional: BLYP <= 

    BLYP GGA Exchange-Correlation Functional

    P.J. Stephens et. al., J. Phys. Chem., 98, 11623-11627, 1994
    B. Miehlich et. al., Chem. Phys. Lett., 157(3), 200-206 1989


    Deriv               =              1
    GGA                 =           TRUE
    Meta                =          FALSE

    Exchange Hybrid     =          FALSE
    MP2 Hybrid          =          FALSE

   => Exchange Functionals <=

    1.0000     XC_GGA_X_B88

   => Correlation Functionals <=

    1.0000     XC_GGA_C_LYP

   => Molecular Quadrature <=

    Radial Scheme          =       TREUTLER
    Pruning Scheme         =           FLAT
    Nuclear Scheme         =       TREUTLER

    BS radius alpha        =              1
    Pruning alpha          =              1
    Radial Points          =             75
    Spherical Points       =            302
    Total Points           =         395880
    Total Blocks           =           2963
    Max Points             =            256
    Max Functions          =             51


  -Total Gradient:
     Atom            X                  Y                   Z
    ------   -----------------  -----------------  -----------------
       1        0.000077387507     0.000064904030    -0.000105480921
       2       -0.000001979714    -0.000076798440    -0.000010152375
       3       -0.000004093228     0.000000012223     0.000027678547
       4        0.000073352922    -0.000005093665    -0.000011100383
       5       -0.000015551728     0.000028359017     0.000005612859
       6       -0.000027035539    -0.000008831326    -0.000056874580
       7       -0.000027217123    -0.000218078010     0.000169501823
       8       -0.000038420474     0.000133423019    -0.000095555009
       9       -0.000040887634     0.000192634086     0.000131255180
      10       -0.000007810259     0.000003785268     0.000022673008
      11        0.000004002342    -0.000005459422     0.000002977325
      12        0.000002061808    -0.000000819933    -0.000001199693
      13        0.000002204231     0.000001673996    -0.000003938130
      14       -0.000004847843     0.000014663720     0.000009142035
      15       -0.000045700483    -0.000086256644    -0.000053224092
      16        0.000024443313     0.000000967355     0.000014478430
      17       -0.000006195026    -0.000054653160    -0.000048309135
      18        0.000014261832     0.000016470060     0.000003147511


*** tstop() called on aaojha at Fri May 14 09:51:07 2021
Module time:
	user time   =       1.99 seconds =       0.03 minutes
	system time =       0.01 seconds =       0.00 minutes
	total time  =          2 seconds =       0.03 minutes
Total time:
	user time   =       8.96 seconds =       0.15 minutes
	system time =       0.21 seconds =       0.00 minutes
	total time  =          9 seconds =       0.15 minutes

    Psi4 stopped on: Friday, 14 May 2021 09:51AM
    Psi4 wall time for execution: 0:00:09.22

*** Psi4 exiting successfully. Buy a developer a beer!
