18   
Iteration 0 Energy -376.54167604
C        0.1529192000   -0.0267916000    0.0057192000
C       -0.5793988000   -0.6670462000   -1.0546347000
C       -1.9961400000   -0.6501991000   -1.0473146000
C       -2.6996790000    0.0098720000    0.0034696000
C       -1.9808709000    0.6554343000    1.0528143000
C       -0.5639992000    0.6411299000    1.0595319000
C        1.6601721000   -0.0190020000   -0.0092549000
N        2.3844196000    0.3074659000    1.1239445000
N        2.3621943000   -0.3031386000   -1.1669810000
H       -0.0529168000   -1.2129055000   -1.8613795000
H       -2.5547893000   -1.1559006000   -1.8588497000
H       -3.8082773000    0.0226929000    0.0035444000
H       -2.5275293000    1.1776911000    1.8620321000
H       -0.0249757000    1.1781858000    1.8637322000
H        3.4359570000    0.3389401000    1.1268733000
H        1.8962242000    0.4182593000    2.0465689000
H        3.4136254000   -0.3205623000   -1.1941125000
H        1.8513276000   -0.4471963000   -2.0724476000
18   
Iteration 1 Energy -376.54113399
C        0.1545689015   -0.0559063137    0.0181970312
C       -0.5805514591   -0.6537364319   -1.0647241923
C       -1.9971209492   -0.6227403386   -1.0633283783
C       -2.6997518257    0.0168529783    0.0006144480
C       -1.9788887305    0.6309420828    1.0672200241
C       -0.5622322527    0.6014809348    1.0786819672
C        1.6617085704   -0.0417317099   -0.0018007565
N        2.3816751789    0.3594493751    1.1098996734
N        2.3636823774   -0.3493671331   -1.1536823489
H       -0.0562909260   -1.1802905917   -1.8855899543
H       -2.5566657322   -1.1002470823   -1.8911626372
H       -3.8081508679    0.0411766995   -0.0041884752
H       -2.5234204946    1.1418156383    1.8851000699
H       -0.0215925308    1.1184317036    1.8948686260
H        3.4323581210    0.4119159112    1.1043473965
H        1.8951549798    0.5072651438    2.0282670803
H        3.4150098715   -0.3460309216   -1.1891132862
H        1.8501959697   -0.5326265497   -2.0505140180
18   
Iteration 2 Energy -376.54084350
C        0.1531071197   -0.0604696969    0.0262240413
C       -0.5817514135   -0.6333120498   -1.0711028607
C       -1.9980131619   -0.5996736942   -1.0788741113
C       -2.7043117692    0.0187486560   -0.0051132890
C       -1.9865195487    0.6084983282    1.0770521082
C       -0.5701564834    0.5772600787    1.0952189871
C        1.6615947850   -0.0390929733    0.0061535197
N        2.3985119669    0.4028953427    1.0913165944
N        2.3593093130   -0.3877439241   -1.1365067129
H       -0.0571690148   -1.1437434262   -1.9018306009
H       -2.5535272892   -1.0570469543   -1.9206896122
H       -3.8126248020    0.0457640780   -0.0144112738
H       -2.5338596314    1.1029822738    1.9030831961
H       -0.0366695234    1.0750093989    1.9276691021
H        3.4492905658    0.4474230377    1.0684415701
H        1.9280553520    0.5800972892    2.0125104205
H        3.4104360924   -0.3772546228   -1.1736826595
H        1.8450179463   -0.6153293885   -2.0223663722
18   
Iteration 3 Energy -376.54053211
C        0.1521140292   -0.0637677117    0.0228382682
C       -0.5853943087   -0.6006606273   -1.0921601321
C       -2.0010458920   -0.5601432474   -1.0964123864
C       -2.7063067939    0.0228699453   -0.0024766128
C       -1.9870668233    0.5716729283    1.0997100693
C       -0.5711133328    0.5372629599    1.1142852314
C        1.6616708223   -0.0337393282    0.0003866701
N        2.3941574349    0.4767943836    1.0588418586
N        2.3700004834   -0.4519186858   -1.1128076959
H       -0.0682930286   -1.0847320313   -1.9430873251
H       -2.5580706025   -0.9843867212   -1.9543737789
H       -3.8145693786    0.0529337857   -0.0108511946
H       -2.5322783911    1.0359272932    1.9444645957
H       -0.0406853408    0.9965208136    1.9703339080
H        3.4452954836    0.5089063193    1.0387163735
H        1.9238946196    0.7039076211    1.9687949561
H        3.4209521089   -0.4281780825   -1.1420948895
H        1.8676212225   -0.7577987677   -1.9811081334
18   
Iteration 4 Energy -376.54063456
C        0.1537978487   -0.0453555867    0.0092360773
C       -0.5852216059   -0.5840443124   -1.1029346673
C       -2.0014221145   -0.5536209713   -1.0980244037
C       -2.7019644408    0.0187589054    0.0047602439
C       -1.9786746032    0.5624838374    1.1072164387
C       -0.5621954536    0.5384466739    1.1135297379
C        1.6618999734   -0.0264331343   -0.0126569636
N        2.3763633883    0.4908149750    1.0550479142
N        2.3776538890   -0.4703921648   -1.1113317184
H       -0.0695403108   -1.0535738164   -1.9627953143
H       -2.5614670899   -0.9762104435   -1.9548487364
H       -3.8104222519    0.0418886907    0.0043023256
H       -2.5217270725    1.0122770495    1.9610967700
H       -0.0277210678    0.9841473793    1.9744555472
H        3.4280650986    0.5075861701    1.0645248428
H        1.8859538673    0.7454624684    1.9471371545
H        3.4287424487   -0.4555583900   -1.1420477219
H        1.8770578900   -0.7949872764   -1.9740567252
18   
Iteration 5 Energy -376.54077861
C        0.1552842227   -0.0028643345   -0.0035622437
C       -0.5831867329   -0.5441795548   -1.1133907757
C       -2.0003130009   -0.5392453905   -1.1053928663
C       -2.7079592941    0.0070125402    0.0059748279
C       -1.9879864137    0.5434367131    1.1143387355
C       -0.5708861791    0.5422423703    1.1128625628
C        1.6633837461   -0.0037897442   -0.0153934896
N        2.3953980341    0.5116862160    1.0412687380
N        2.3710400148   -0.5056132657   -1.0930936324
H       -0.0639554323   -0.9810875737   -1.9880451177
H       -2.5547880897   -0.9602445921   -1.9666201026
H       -3.8166408245    0.0117256297    0.0096289067
H       -2.5338855319    0.9640677927    1.9811833302
H       -0.0436636675    0.9662946044    1.9890425799
H        3.4465229576    0.4743827040    1.0635488781
H        1.9113568494    0.8339578095    1.9145844486
H        3.4222219888   -0.5094294847   -1.1252874684
H        1.8647338130   -0.8652549369   -1.9388445872
18   
Iteration 6 Energy -376.54079416
C        0.1515846759   -0.0021380165   -0.0094967798
C       -0.5848115952   -0.5438245171   -1.1222592614
C       -2.0012677833   -0.5371033687   -1.1045842881
C       -2.7055924164    0.0047681770    0.0108017424
C       -1.9860419057    0.5422128482    1.1184895596
C       -0.5695641189    0.5409402603    1.1124629321
C        1.6610968889   -0.0047960993   -0.0184614376
N        2.3897482832    0.5103770141    1.0397702343
N        2.3740751946   -0.5099080194   -1.0910448766
H       -0.0696949324   -0.9744709776   -2.0024826264
H       -2.5597438465   -0.9559476256   -1.9642079595
H       -3.8142605040    0.0074056423    0.0172844154
H       -2.5303120709    0.9623909691    1.9865869399
H       -0.0396374818    0.9659386746    1.9866272767
H        3.4405419928    0.4682936573    1.0586437669
H        1.9054511547    0.8486601674    1.9066834113
H        3.4255966672   -0.5018461435   -1.1021824050
H        1.8806806545   -0.8776301488   -1.9404481892
18   
Iteration 7 Energy -376.54082379
C        0.1528762866   -0.0065917884   -0.0065663604
C       -0.5877681431   -0.5453090561   -1.1186095074
C       -2.0041179338   -0.5381261839   -1.1057948946
C       -2.7069825339    0.0041777910    0.0100629358
C       -1.9846380792    0.5419225955    1.1157616563
C       -0.5682035798    0.5395187814    1.1141973639
C        1.6630970114   -0.0082410283   -0.0168568540
N        2.3906646196    0.5051374967    1.0427819132
N        2.3778709987   -0.5071941288   -1.0917454550
H       -0.0731568418   -0.9760795202   -1.9989519864
H       -2.5619766489   -0.9562141867   -1.9662355512
H       -3.8156481119    0.0086164592    0.0174889375
H       -2.5289819092    0.9655561724    1.9820899517
H       -0.0391287644    0.9688905259    1.9867048313
H        3.4417287120    0.4752314774    1.0624401516
H        1.9030657816    0.8452721597    1.9069260721
H        3.4292368651   -0.5004763865   -1.1119841308
H        1.8810393629   -0.8727842057   -1.9396865871
18   
Iteration 8 Energy -376.54083052
C        0.1539776867   -0.0076069230   -0.0061378515
C       -0.5842674855   -0.5443963362   -1.1196105765
C       -2.0007818122   -0.5357370833   -1.1049698179
C       -2.7064496410    0.0046884563    0.0103821635
C       -1.9865692699    0.5417583560    1.1180340267
C       -0.5699463999    0.5371471743    1.1132056030
C        1.6634586032   -0.0090752072   -0.0156035220
N        2.3908162129    0.5024079546    1.0452743717
N        2.3768292335   -0.5084843558   -1.0914930061
H       -0.0682675902   -0.9735500591   -2.0000640718
H       -2.5583224468   -0.9525313989   -1.9662147517
H       -3.8151220749    0.0083898713    0.0159382964
H       -2.5308231760    0.9648486357    1.9847426879
H       -0.0406645966    0.9661902886    1.9856603330
H        3.4420544485    0.4809858457    1.0638632351
H        1.9020531488    0.8507621302    1.9054191675
H        3.4279771898   -0.5059098253   -1.1207760285
H        1.8747163577   -0.8763070794   -1.9355759055
18   
Iteration 9 Energy -376.54084674
C        0.1540462193   -0.0047500444   -0.0051928666
C       -0.5836937452   -0.5397930814   -1.1193383109
C       -2.0003776397   -0.5337813753   -1.1076503805
C       -2.7059549131    0.0039233602    0.0091001872
C       -1.9857658858    0.5386355419    1.1179162208
C       -0.5689865698    0.5367268924    1.1158418760
C        1.6629466957   -0.0081132664   -0.0151570456
N        2.3919699337    0.5012847445    1.0455344265
N        2.3732803453   -0.5126388971   -1.0904644655
H       -0.0657853593   -0.9655123867   -2.0003647064
H       -2.5567561244   -0.9492875188   -1.9702981982
H       -3.8146253381    0.0068134391    0.0150012131
H       -2.5311157107    0.9583614785    1.9855440521
H       -0.0405515471    0.9630483852    1.9902173764
H        3.4433131748    0.4824877324    1.0586707415
H        1.9055834815    0.8634215056    1.9013291694
H        3.4244928955   -0.5101331507   -1.1166089564
H        1.8711696524   -0.8866886133   -1.9320792732
18   
Iteration 10 Energy -376.54085558
C        0.1544111758   -0.0033662703   -0.0080315496
C       -0.5859698564   -0.5357344311   -1.1223789735
C       -2.0025794878   -0.5302185326   -1.1087712558
C       -2.7067163265    0.0037824973    0.0104592787
C       -1.9848665850    0.5347768532    1.1198577295
C       -0.5681984026    0.5334683220    1.1156595961
C        1.6640569597   -0.0079114037   -0.0171687840
N        2.3912385174    0.4995787377    1.0451095482
N        2.3771012004   -0.5171146311   -1.0881640145
H       -0.0706121367   -0.9578361853   -2.0064977552
H       -2.5600329626   -0.9430227906   -1.9720210038
H       -3.8153803218    0.0063470617    0.0179830497
H       -2.5289436845    0.9507973995    1.9900575320
H       -0.0391092285    0.9551543777    1.9919150180
H        3.4426834708    0.4893326030    1.0560349111
H        1.9032561708    0.8810113210    1.8914566707
H        3.4285065393   -0.5137662066   -1.1060960370
H        1.8796612346   -0.9007513402   -1.9280057216
18   
Iteration 11 Energy -376.54085847
C        0.1530819512   -0.0028762971   -0.0073804771
C       -0.5846563090   -0.5335470204   -1.1247077384
C       -2.0011074389   -0.5275463299   -1.1109711732
C       -2.7050148785    0.0039479759    0.0095185983
C       -1.9843484739    0.5320835734    1.1210025425
C       -0.5678423370    0.5315432137    1.1188390399
C        1.6629961399   -0.0075266149   -0.0156999483
N        2.3923808090    0.4968433578    1.0462784600
N        2.3757078173   -0.5193912436   -1.0855891091
H       -0.0686647805   -0.9531873664   -2.0096625335
H       -2.5586094271   -0.9379123798   -1.9753350104
H       -3.8136801547    0.0066544902    0.0164717349
H       -2.5294515224    0.9453643571    1.9918468200
H       -0.0390605194    0.9493920999    1.9971576249
H        3.4438895751    0.4960733180    1.0500046632
H        1.9063297101    0.8953023485    1.8857716532
H        3.4270935317   -0.5206006206   -1.1051241860
H        1.8765959822   -0.9095573680   -1.9212715763
18   
Iteration 12 Energy -376.54086220
C        0.1545003146   -0.0038102837   -0.0069701413
C       -0.5841822994   -0.5336720252   -1.1235591731
C       -2.0007503827   -0.5272283441   -1.1104206996
C       -2.7054659819    0.0045391759    0.0095553714
C       -1.9847437270    0.5322836017    1.1212107636
C       -0.5680958110    0.5305487120    1.1180303678
C        1.6641224869   -0.0080916370   -0.0159895287
N        2.3922339164    0.4964253371    1.0471899760
N        2.3763457018   -0.5187730691   -1.0870200096
H       -0.0679330042   -0.9539423782   -2.0081085444
H       -2.5578972641   -0.9375356802   -1.9750491306
H       -3.8141328148    0.0077159819    0.0159980815
H       -2.5294894526    0.9459231699    1.9921300951
H       -0.0393400862    0.9479546669    1.9964970302
H        3.4437465145    0.4985763196    1.0508894874
H        1.9053591671    0.8946660138    1.8863827920
H        3.4276813060   -0.5215825446   -1.1072030235
H        1.8765163495   -0.9089461444   -1.9224056085
18   
Iteration 13 Energy -376.54086242
C        0.1546858822   -0.0039089682   -0.0072894961
C       -0.5841630722   -0.5339481193   -1.1236981100
C       -2.0007353336   -0.5273639228   -1.1101947679
C       -2.7053678671    0.0046616248    0.0097198690
C       -1.9843915795    0.5324262643    1.1212082336
C       -0.5677445942    0.5305808305    1.1177248149
C        1.6642591472   -0.0080685509   -0.0163674786
N        2.3924048319    0.4966629945    1.0467312029
N        2.3766485421   -0.5181202292   -1.0875110582
H       -0.0681445714   -0.9544852456   -2.0082420856
H       -2.5580508365   -0.9378556359   -1.9746248223
H       -3.8140357984    0.0079557557    0.0162813908
H       -2.5289279042    0.9461757778    1.9922063132
H       -0.0387439292    0.9477952903    1.9961460039
H        3.4439441332    0.4992174604    1.0526321144
H        1.9045748539    0.8935297688    1.8860461125
H        3.4280178100   -0.5217108132   -1.1066453375
H        1.8771782468   -0.9085483703   -1.9230004968
