
    -----------------------------------------------------------------------
          Psi4: An Open-Source Ab Initio Electronic Structure Package
                               Psi4 1.3.2 release

                         Git: Rev {HEAD} ecbda83 


    R. M. Parrish, L. A. Burns, D. G. A. Smith, A. C. Simmonett,
    A. E. DePrince III, E. G. Hohenstein, U. Bozkaya, A. Yu. Sokolov,
    R. Di Remigio, R. M. Richard, J. F. Gonthier, A. M. James,
    H. R. McAlexander, A. Kumar, M. Saitow, X. Wang, B. P. Pritchard,
    P. Verma, H. F. Schaefer III, K. Patkowski, R. A. King, E. F. Valeev,
    F. A. Evangelista, J. M. Turney, T. D. Crawford, and C. D. Sherrill,
    J. Chem. Theory Comput. 13(7) pp 3185--3197 (2017).
    (doi: 10.1021/acs.jctc.7b00174)


                         Additional Contributions by
    P. Kraus, H. Kruse, M. H. Lechner, M. C. Schieber, R. A. Shaw,
    A. Alenaizan, R. Galvelis, Z. L. Glick, S. Lehtola, and J. P. Misiewicz

    -----------------------------------------------------------------------


    Psi4 started on: Friday, 14 May 2021 09:28AM

    Process ID: 1943
    Host:       aaojha
    PSIDATADIR: /home/aaojha/anaconda3/envs/torsiondrive/share/psi4
    Memory:     500.0 MiB
    Threads:    1
    
  ==> Input File <==

--------------------------------------------------------------------------
memory 50 GB
molecule {
1 1
C           0.1627258    -0.0138714    -0.0251669
C          -0.5545356    -1.2030431     0.3382538
C          -1.9726692    -1.1829401     0.3525495
C          -2.6762878     0.0076817     0.0044125
C          -1.9624000     1.1909733    -0.3489221
C          -0.5442739     1.1922471    -0.3505887
C           1.6725837    -0.0128274     0.0060039
N           2.3801010    -1.0720616    -0.5277055
N           2.3578484     1.0739271     0.5129244
H          -0.0081206    -2.1203569     0.6323781
H          -2.5313547    -2.0941932     0.6422446
H          -3.7846829     0.0148140     0.0120580
H          -2.5129425     2.1120187    -0.6229500
H           0.0102044     2.1053732    -0.6424907
H           3.4295630    -1.1423581    -0.4752657
H           1.8586780    -1.8669711    -0.9763920
H           3.4085067     1.1434551     0.4976203
H           1.8232528     1.8497451     0.9790909
}
set {
basis STO-3G
}
gradient('BLYP')
--------------------------------------------------------------------------

  Memory set to  46.566 GiB by Python driver.
gradient() will perform analytic gradient computation.

*** tstart() called on aaojha
*** at Fri May 14 09:28:11 2021

   => Loading Basis Set <=

    Name: STO-3G
    Role: ORBITAL
    Keyword: BASIS
    atoms 1-7   entry C          line    61 file /home/aaojha/anaconda3/envs/torsiondrive/share/psi4/basis/sto-3g.gbs 
    atoms 8-9   entry N          line    71 file /home/aaojha/anaconda3/envs/torsiondrive/share/psi4/basis/sto-3g.gbs 
    atoms 10-18 entry H          line    19 file /home/aaojha/anaconda3/envs/torsiondrive/share/psi4/basis/sto-3g.gbs 


         ---------------------------------------------------------
                                   SCF
               by Justin Turney, Rob Parrish, Andy Simmonett
                          and Daniel G. A. Smith
                              RKS Reference
                        1 Threads,  47683 MiB Core
         ---------------------------------------------------------

  ==> Geometry <==

    Molecular point group: c1
    Full point group: C1

    Geometry (in Angstrom), charge = 1, multiplicity = 1:

       Center              X                  Y                   Z               Mass       
    ------------   -----------------  -----------------  -----------------  -----------------
         C            0.182928511895    -0.011941238683    -0.021517795330    12.000000000000
         C           -0.534332888105    -1.201112938683     0.341902904670    12.000000000000
         C           -1.952466488105    -1.181009938683     0.356198604670    12.000000000000
         C           -2.656085088105     0.009611861317     0.008061604670    12.000000000000
         C           -1.942197288105     1.192903461317    -0.345272995330    12.000000000000
         C           -0.524071188105     1.194177261317    -0.346939595330    12.000000000000
         C            1.692786411895    -0.010897238683     0.009653004670    12.000000000000
         N            2.400303711895    -1.070131438683    -0.524056395330    14.003074004430
         N            2.378051111895     1.075857261317     0.516573504670    14.003074004430
         H            0.012082111895    -2.118426738683     0.636027204670     1.007825032230
         H           -2.511151988105    -2.092263038683     0.645893704670     1.007825032230
         H           -3.764480188105     0.016744161317     0.015707104670     1.007825032230
         H           -2.492739788105     2.113948861317    -0.619300895330     1.007825032230
         H            0.030407111895     2.107303361317    -0.638841595330     1.007825032230
         H            3.449765711895    -1.140427938683    -0.471616595330     1.007825032230
         H            1.878880711895    -1.865040938683    -0.972742895330     1.007825032230
         H            3.428709411895     1.145385261317     0.501269404670     1.007825032230
         H            1.843455511895     1.851675261317     0.982740004670     1.007825032230

  Running in c1 symmetry.

  Rotational constants: A =      0.11593  B =      0.03730  C =      0.02994 [cm^-1]
  Rotational constants: A =   3475.49823  B =   1118.14418  C =    897.68222 [MHz]
  Nuclear repulsion =  406.297236250134233

  Charge       = 1
  Multiplicity = 1
  Electrons    = 64
  Nalpha       = 32
  Nbeta        = 32

  ==> Algorithm <==

  SCF Algorithm Type is DF.
  DIIS enabled.
  MOM disabled.
  Fractional occupation disabled.
  Guess Type is SAD.
  Energy threshold   = 1.00e-08
  Density threshold  = 1.00e-08
  Integral threshold = 0.00e+00

  ==> Primary Basis <==

  Basis Set: STO-3G
    Blend: STO-3G
    Number of shells: 36
    Number of basis function: 54
    Number of Cartesian functions: 54
    Spherical Harmonics?: true
    Max angular momentum: 1

  ==> DFT Potential <==

   => Composite Functional: BLYP <= 

    BLYP GGA Exchange-Correlation Functional

    P.J. Stephens et. al., J. Phys. Chem., 98, 11623-11627, 1994
    B. Miehlich et. al., Chem. Phys. Lett., 157(3), 200-206 1989


    Deriv               =              1
    GGA                 =           TRUE
    Meta                =          FALSE

    Exchange Hybrid     =          FALSE
    MP2 Hybrid          =          FALSE

   => Exchange Functionals <=

    1.0000     XC_GGA_X_B88

   => Correlation Functionals <=

    1.0000     XC_GGA_C_LYP

   => Molecular Quadrature <=

    Radial Scheme          =       TREUTLER
    Pruning Scheme         =           FLAT
    Nuclear Scheme         =       TREUTLER

    BS radius alpha        =              1
    Pruning alpha          =              1
    Radial Points          =             75
    Spherical Points       =            302
    Total Points           =         395440
    Total Blocks           =           2971
    Max Points             =            256
    Max Functions          =             51

   => Loading Basis Set <=

    Name: (STO-3G AUX)
    Role: JKFIT
    Keyword: DF_BASIS_SCF
    atoms 1-7   entry C          line   203 file /home/aaojha/anaconda3/envs/torsiondrive/share/psi4/basis/def2-svp-jkfit.gbs 
    atoms 8-9   entry N          line   263 file /home/aaojha/anaconda3/envs/torsiondrive/share/psi4/basis/def2-svp-jkfit.gbs 
    atoms 10-18 entry H          line    23 file /home/aaojha/anaconda3/envs/torsiondrive/share/psi4/basis/def2-svp-jkfit.gbs 

  ==> Pre-Iterations <==

   -------------------------------------------------------
    Irrep   Nso     Nmo     Nalpha   Nbeta   Ndocc  Nsocc
   -------------------------------------------------------
     A         54      54       0       0       0       0
   -------------------------------------------------------
    Total      54      54      32      32      32       0
   -------------------------------------------------------

  ==> Integral Setup <==

  DFHelper Memory: AOs need 0.024 GiB; user supplied 34.424 GiB. Using in-core AOs.

  ==> MemDFJK: Density-Fitted J/K Matrices <==

    J tasked:                   Yes
    K tasked:                    No
    wK tasked:                   No
    OpenMP threads:               1
    Memory [MiB]:             35249
    Algorithm:                 Core
    Schwarz Cutoff:           1E-12
    Mask sparsity (%):       1.8519
    Fitting Condition:        1E-10

   => Auxiliary Basis Set <=

  Basis Set: (STO-3G AUX)
    Blend: DEF2-SVP-JKFIT
    Number of shells: 279
    Number of basis function: 841
    Number of Cartesian functions: 989
    Spherical Harmonics?: true
    Max angular momentum: 4

  Cached 100.0% of DFT collocation blocks in 0.501 [GiB].

  Minimum eigenvalue in the overlap matrix is 1.8813644874E-01.
  Using Symmetric Orthogonalization.

  SCF Guess: Superposition of Atomic Densities via on-the-fly atomic UHF.

  ==> Iterations <==

                           Total Energy        Delta E     RMS |[F,P]|

   @DF-RKS iter SAD:  -373.14475941609885   -3.73145e+02   0.00000e+00 
   @DF-RKS iter   1:  -376.48592922883449   -3.34117e+00   5.08311e-03 DIIS
   @DF-RKS iter   2:  -376.34266901353305    1.43260e-01   9.95367e-03 DIIS
   @DF-RKS iter   3:  -376.53551918553478   -1.92850e-01   1.63057e-03 DIIS
   @DF-RKS iter   4:  -376.54009213115808   -4.57295e-03   6.81856e-04 DIIS
   @DF-RKS iter   5:  -376.54108962713144   -9.97496e-04   1.60584e-04 DIIS
   @DF-RKS iter   6:  -376.54113995072976   -5.03236e-05   4.29973e-05 DIIS
   @DF-RKS iter   7:  -376.54114314388062   -3.19315e-06   1.44752e-05 DIIS
   @DF-RKS iter   8:  -376.54114348365215   -3.39772e-07   6.12672e-06 DIIS
   @DF-RKS iter   9:  -376.54114355998342   -7.63313e-08   1.48521e-06 DIIS
   @DF-RKS iter  10:  -376.54114356373873   -3.75530e-09   5.04206e-07 DIIS
   @DF-RKS iter  11:  -376.54114356431944   -5.80712e-10   9.60947e-08 DIIS
   @DF-RKS iter  12:  -376.54114356433627   -1.68257e-11   3.61749e-08 DIIS
   @DF-RKS iter  13:  -376.54114356433854   -2.27374e-12   6.61675e-09 DIIS
  Energy and wave function converged.


  ==> Post-Iterations <==

    Orbital Energies [Eh]
    ---------------------

    Doubly Occupied:                                                      

       1A    -14.125525     2A    -14.125364     3A    -10.093381  
       4A     -9.948087     5A     -9.922207     6A     -9.921851  
       7A     -9.910507     8A     -9.908414     9A     -9.908139  
      10A     -1.043730    11A     -0.965414    12A     -0.878762  
      13A     -0.803489    14A     -0.778468    15A     -0.736441  
      16A     -0.678146    17A     -0.664850    18A     -0.638670  
      19A     -0.629838    20A     -0.594865    21A     -0.569583  
      22A     -0.532466    23A     -0.513249    24A     -0.484669  
      25A     -0.483905    26A     -0.476505    27A     -0.416769  
      28A     -0.414337    29A     -0.407929    30A     -0.365481  
      31A     -0.321874    32A     -0.316382  

    Virtual:                                                              

      33A     -0.184707    34A     -0.103539    35A     -0.099095  
      36A      0.012037    37A      0.023368    38A      0.052365  
      39A      0.057392    40A      0.115102    41A      0.121608  
      42A      0.161450    43A      0.185860    44A      0.191032  
      45A      0.224633    46A      0.232369    47A      0.257439  
      48A      0.279136    49A      0.348533    50A      0.349516  
      51A      0.357871    52A      0.371698    53A      0.493651  
      54A      0.537038  

    Final Occupation by Irrep:
              A 
    DOCC [    32 ]

  @DF-RKS Final Energy:  -376.54114356433854

   => Energetics <=

    Nuclear Repulsion Energy =            406.2972362501342332
    One-Electron Energy =               -1303.5108067425453555
    Two-Electron Energy =                 574.9661212983461382
    DFT Exchange-Correlation Energy =     -54.2936943702736059
    Empirical Dispersion Energy =           0.0000000000000000
    VV10 Nonlocal Energy =                  0.0000000000000000
    Total Energy =                       -376.5411435643385971

Computation Completed


Properties will be evaluated at   0.000000,   0.000000,   0.000000 [a0]

Properties computed using the SCF density matrix

  Nuclear Dipole Moment: [e a0]
     X:     1.7438      Y:     0.0177      Z:     0.0742

  Electronic Dipole Moment: [e a0]
     X:     0.8677      Y:    -0.0338      Z:    -0.0215

  Dipole Moment: [e a0]
     X:     2.6115      Y:    -0.0161      Z:     0.0527     Total:     2.6121

  Dipole Moment: [D]
     X:     6.6377      Y:    -0.0410      Z:     0.1340     Total:     6.6392


*** tstop() called on aaojha at Fri May 14 09:28:19 2021
Module time:
	user time   =       7.25 seconds =       0.12 minutes
	system time =       0.24 seconds =       0.00 minutes
	total time  =          8 seconds =       0.13 minutes
Total time:
	user time   =       7.25 seconds =       0.12 minutes
	system time =       0.24 seconds =       0.00 minutes
	total time  =          8 seconds =       0.13 minutes

*** tstart() called on aaojha
*** at Fri May 14 09:28:19 2021


         ------------------------------------------------------------
                                   SCF GRAD                          
                          Rob Parrish, Justin Turney,                
                       Andy Simmonett, and Alex Sokolov              
         ------------------------------------------------------------

  ==> Geometry <==

    Molecular point group: c1
    Full point group: C1

    Geometry (in Angstrom), charge = 1, multiplicity = 1:

       Center              X                  Y                   Z               Mass       
    ------------   -----------------  -----------------  -----------------  -----------------
         C            0.182928511895    -0.011941238683    -0.021517795330    12.000000000000
         C           -0.534332888105    -1.201112938683     0.341902904670    12.000000000000
         C           -1.952466488105    -1.181009938683     0.356198604670    12.000000000000
         C           -2.656085088105     0.009611861317     0.008061604670    12.000000000000
         C           -1.942197288105     1.192903461317    -0.345272995330    12.000000000000
         C           -0.524071188105     1.194177261317    -0.346939595330    12.000000000000
         C            1.692786411895    -0.010897238683     0.009653004670    12.000000000000
         N            2.400303711895    -1.070131438683    -0.524056395330    14.003074004430
         N            2.378051111895     1.075857261317     0.516573504670    14.003074004430
         H            0.012082111895    -2.118426738683     0.636027204670     1.007825032230
         H           -2.511151988105    -2.092263038683     0.645893704670     1.007825032230
         H           -3.764480188105     0.016744161317     0.015707104670     1.007825032230
         H           -2.492739788105     2.113948861317    -0.619300895330     1.007825032230
         H            0.030407111895     2.107303361317    -0.638841595330     1.007825032230
         H            3.449765711895    -1.140427938683    -0.471616595330     1.007825032230
         H            1.878880711895    -1.865040938683    -0.972742895330     1.007825032230
         H            3.428709411895     1.145385261317     0.501269404670     1.007825032230
         H            1.843455511895     1.851675261317     0.982740004670     1.007825032230

  Nuclear repulsion =  406.297236250134290

  ==> Basis Set <==

  Basis Set: STO-3G
    Blend: STO-3G
    Number of shells: 36
    Number of basis function: 54
    Number of Cartesian functions: 54
    Spherical Harmonics?: true
    Max angular momentum: 1

  ==> DFJKGrad: Density-Fitted SCF Gradients <==

    Gradient:                    1
    J tasked:                  Yes
    K tasked:                   No
    wK tasked:                  No
    OpenMP threads:              1
    Integrals threads:           1
    Memory [MiB]:            35762
    Schwarz Cutoff:          0E+00
    Fitting Condition:       1E-10

   => Auxiliary Basis Set <=

  Basis Set: (STO-3G AUX)
    Blend: DEF2-SVP-JKFIT
    Number of shells: 279
    Number of basis function: 841
    Number of Cartesian functions: 989
    Spherical Harmonics?: true
    Max angular momentum: 4

  ==> DFT Potential <==

   => Composite Functional: BLYP <= 

    BLYP GGA Exchange-Correlation Functional

    P.J. Stephens et. al., J. Phys. Chem., 98, 11623-11627, 1994
    B. Miehlich et. al., Chem. Phys. Lett., 157(3), 200-206 1989


    Deriv               =              1
    GGA                 =           TRUE
    Meta                =          FALSE

    Exchange Hybrid     =          FALSE
    MP2 Hybrid          =          FALSE

   => Exchange Functionals <=

    1.0000     XC_GGA_X_B88

   => Correlation Functionals <=

    1.0000     XC_GGA_C_LYP

   => Molecular Quadrature <=

    Radial Scheme          =       TREUTLER
    Pruning Scheme         =           FLAT
    Nuclear Scheme         =       TREUTLER

    BS radius alpha        =              1
    Pruning alpha          =              1
    Radial Points          =             75
    Spherical Points       =            302
    Total Points           =         395440
    Total Blocks           =           2971
    Max Points             =            256
    Max Functions          =             51


  -Total Gradient:
     Atom            X                  Y                   Z
    ------   -----------------  -----------------  -----------------
       1       -0.000175241468    -0.000549083760    -0.005161578097
       2        0.000157249797     0.000451802532     0.002793020990
       3        0.000072292738     0.000242401553    -0.000053951776
       4        0.000072893886    -0.000050776844    -0.000001655860
       5       -0.000077114785     0.000181119912    -0.000032248764
       6       -0.000020706935    -0.000078760881    -0.000047723407
       7        0.000041881137    -0.001701164636     0.005144771691
       8       -0.000015341689     0.001304833880    -0.002744285007
       9       -0.000036586994     0.000113364152     0.000027709691
      10        0.000001391670    -0.000011894797     0.000021005399
      11        0.000036581690     0.000003145300    -0.000001546352
      12        0.000004657833     0.000027485317    -0.000007475821
      13       -0.000001595447     0.000015665815    -0.000007597099
      14       -0.000025962647     0.000020799475     0.000010576224
      15       -0.000016196198     0.000054146843     0.000022963285
      16        0.000008868207     0.000011350515     0.000027973045
      17        0.000000468630    -0.000022981155     0.000000040069
      18        0.000003447744    -0.000003829919     0.000007794357


*** tstop() called on aaojha at Fri May 14 09:28:21 2021
Module time:
	user time   =       2.10 seconds =       0.04 minutes
	system time =       0.01 seconds =       0.00 minutes
	total time  =          2 seconds =       0.03 minutes
Total time:
	user time   =       9.35 seconds =       0.16 minutes
	system time =       0.25 seconds =       0.00 minutes
	total time  =         10 seconds =       0.17 minutes

    Psi4 stopped on: Friday, 14 May 2021 09:28AM
    Psi4 wall time for execution: 0:00:09.66

*** Psi4 exiting successfully. Buy a developer a beer!
