Title Card Required                                                     
Freq      RB3LYP                                                      6-31G               
Number of atoms                            I               17
Info1-9                                    I   N=           9
          42          42        1002           0           0         100
           6          18        -502
Full Title                                 C   N=           2
Title Card Required     
Route                                      C   N=           4
# B3LYP/6-31G OPT FREQ geom=connectivity        
Charge                                     I                0
Multiplicity                               I                1
Number of electrons                        I               42
Number of alpha electrons                  I               21
Number of beta electrons                   I               21
Number of basis functions                  I               69
Number of independent functions            I               69
Number of point charges in /Mol/           I                0
Number of translation vectors              I                0
Atomic numbers                             I   N=          17
           6           1           1           6           1           1
           1           6           1           1           6           1
           1           6           1           1           1
Nuclear charges                            R   N=          17
  6.00000000E+00  1.00000000E+00  1.00000000E+00  6.00000000E+00  1.00000000E+00
  1.00000000E+00  1.00000000E+00  6.00000000E+00  1.00000000E+00  1.00000000E+00
  6.00000000E+00  1.00000000E+00  1.00000000E+00  6.00000000E+00  1.00000000E+00
  1.00000000E+00  1.00000000E+00
Current cartesian coordinates              R   N=          51
 -2.43377599E+00  9.93620694E-01  8.68686385E-05 -2.43085891E+00  2.24263018E+00
 -1.66209782E+00 -2.43090590E+00  2.24243398E+00  1.66241885E+00 -4.85267504E+00
 -6.14933059E-01 -5.37765879E-05 -4.93365653E+00 -1.83733369E+00  1.67347869E+00
 -6.55190702E+00  5.70791884E-01  7.57906906E-05 -4.93368039E+00 -1.83702067E+00
 -1.67381224E+00 -3.33741306E-08 -6.00801023E-01  3.35751159E-05  5.10681099E-05
 -1.85119191E+00  1.66367848E+00 -5.13188617E-05 -1.85125667E+00 -1.66356228E+00
  2.43377601E+00  9.93620680E-01 -8.54506547E-05  2.43087690E+00  2.24241289E+00
 -1.66243275E+00  2.43088816E+00  2.24265131E+00  1.66208389E+00  4.85267505E+00
 -6.14933079E-01  2.19598735E-05  4.93363552E+00 -1.83734288E+00 -1.67350473E+00
  6.55190706E+00  5.70791826E-01 -1.31142411E-04  4.93370140E+00 -1.83701152E+00
  1.67378620E+00
Number of symbols in /Mol/                 I                0
Force Field                                I                0
Atom Types                                 C   N=          17
                                                            
                                                            
                                                            
                        
Int Atom Types                             I   N=          17
           0           0           0           0           0           0
           0           0           0           0           0           0
           0           0           0           0           0
MM charges                                 R   N=          17
  0.00000000E+00  0.00000000E+00  0.00000000E+00  0.00000000E+00  0.00000000E+00
  0.00000000E+00  0.00000000E+00  0.00000000E+00  0.00000000E+00  0.00000000E+00
  0.00000000E+00  0.00000000E+00  0.00000000E+00  0.00000000E+00  0.00000000E+00
  0.00000000E+00  0.00000000E+00
Integer atomic weights                     I   N=          17
          12           1           1          12           1           1
           1          12           1           1          12           1
           1          12           1           1           1
Real atomic weights                        R   N=          17
  1.20000000E+01  1.00782504E+00  1.00782504E+00  1.20000000E+01  1.00782504E+00
  1.00782504E+00  1.00782504E+00  1.20000000E+01  1.00782504E+00  1.00782504E+00
  1.20000000E+01  1.00782504E+00  1.00782504E+00  1.20000000E+01  1.00782504E+00
  1.00782504E+00  1.00782504E+00
Atom fragment info                         I   N=          17
           0           0           0           0           0           0
           0           0           0           0           0           0
           0           0           0           0           0
Atom residue num                           I   N=          17
           0           0           0           0           0           0
           0           0           0           0           0           0
           0           0           0           0           0
Nuclear spins                              I   N=          17
           0           1           1           0           1           1
           1           0           1           1           0           1
           1           0           1           1           1
Nuclear ZEff                               R   N=          17
 -3.60000000E+00 -1.00000000E+00 -1.00000000E+00 -3.60000000E+00 -1.00000000E+00
 -1.00000000E+00 -1.00000000E+00 -3.60000000E+00 -1.00000000E+00 -1.00000000E+00
 -3.60000000E+00 -1.00000000E+00 -1.00000000E+00 -3.60000000E+00 -1.00000000E+00
 -1.00000000E+00 -1.00000000E+00
Nuclear ZNuc                               R   N=          17
  6.00000000E+00  1.00000000E+00  1.00000000E+00  6.00000000E+00  1.00000000E+00
  1.00000000E+00  1.00000000E+00  6.00000000E+00  1.00000000E+00  1.00000000E+00
  6.00000000E+00  1.00000000E+00  1.00000000E+00  6.00000000E+00  1.00000000E+00
  1.00000000E+00  1.00000000E+00
Nuclear QMom                               R   N=          17
  0.00000000E+00  0.00000000E+00  0.00000000E+00  0.00000000E+00  0.00000000E+00
  0.00000000E+00  0.00000000E+00  0.00000000E+00  0.00000000E+00  0.00000000E+00
  0.00000000E+00  0.00000000E+00  0.00000000E+00  0.00000000E+00  0.00000000E+00
  0.00000000E+00  0.00000000E+00
Nuclear GFac                               R   N=          17
  0.00000000E+00  2.79284600E+00  2.79284600E+00  0.00000000E+00  2.79284600E+00
  2.79284600E+00  2.79284600E+00  0.00000000E+00  2.79284600E+00  2.79284600E+00
  0.00000000E+00  2.79284600E+00  2.79284600E+00  0.00000000E+00  2.79284600E+00
  2.79284600E+00  2.79284600E+00
MicOpt                                     I   N=          17
          -1          -1          -1          -1          -1          -1
          -1          -1          -1          -1          -1          -1
          -1          -1          -1          -1          -1
Number of residues                         I                0
Number of secondary structures             I                0
Redundant internal dimensions              I   N=           4
          82          16          30          36
Redundant internal coordinate indices      I   N=         328
           1           2           0           0           1           3
           0           0           1           4           0           0
           1           8           0           0           4           5
           0           0           4           6           0           0
           4           7           0           0           8           9
           0           0           8          10           0           0
           8          11           0           0          11          12
           0           0          11          13           0           0
          11          14           0           0          14          15
           0           0          14          16           0           0
          14          17           0           0           2           1
           3           0           2           1           4           0
           2           1           8           0           3           1
           4           0           3           1           8           0
           4           1           8           0           1           4
           5           0           1           4           6           0
           1           4           7           0           5           4
           6           0           5           4           7           0
           6           4           7           0           1           8
           9           0           1           8          10           0
           1           8          11           0           9           8
          10           0           9           8          11           0
          10           8          11           0           8          11
          12           0           8          11          13           0
           8          11          14           0          12          11
          13           0          12          11          14           0
          13          11          14           0          11          14
          15           0          11          14          16           0
          11          14          17           0          15          14
          16           0          15          14          17           0
          16          14          17           0           2           1
           4           5           2           1           4           6
           2           1           4           7           3           1
           4           5           3           1           4           6
           3           1           4           7           8           1
           4           5           8           1           4           6
           8           1           4           7           2           1
           8           9           2           1           8          10
           2           1           8          11           3           1
           8           9           3           1           8          10
           3           1           8          11           4           1
           8           9           4           1           8          10
           4           1           8          11           1           8
          11          12           1           8          11          13
           1           8          11          14           9           8
          11          12           9           8          11          13
           9           8          11          14          10           8
          11          12          10           8          11          13
          10           8          11          14           8          11
          14          15           8          11          14          16
           8          11          14          17          12          11
          14          15          12          11          14          16
          12          11          14          17          13          11
          14          15          13          11          14          16
          13          11          14          17
Redundant internal coordinates             R   N=          82
  2.07915635E+00  2.07915619E+00  2.90491271E+00  2.90954395E+00  2.07401355E+00
  2.07203595E+00  2.07401239E+00  2.08115154E+00  2.08115124E+00  2.90954402E+00
  2.07915582E+00  2.07915674E+00  2.90491270E+00  2.07401348E+00  2.07203595E+00
  2.07401246E+00  1.85288130E+00  1.91110134E+00  1.90499208E+00  1.91110810E+00
  1.90498838E+00  1.97478088E+00  1.93782087E+00  1.94550056E+00  1.93782552E+00
  1.88095257E+00  1.87797316E+00  1.88095813E+00  1.90630741E+00  1.90631295E+00
  1.98165678E+00  1.85250853E+00  1.90631403E+00  1.90630646E+00  1.90498931E+00
  1.90499123E+00  1.97478090E+00  1.85288126E+00  1.91110483E+00  1.91110453E+00
  1.93782436E+00  1.94550057E+00  1.93782203E+00  1.88095433E+00  1.87797316E+00
  1.88095635E+00 -3.10983635E+00 -1.01248265E+00  1.08488125E+00 -1.08496242E+00
  1.01239127E+00  3.10975517E+00  1.04419334E+00  3.14154704E+00 -1.04427437E+00
  3.14099392E+00 -1.12314109E+00  1.00892357E+00  1.12295851E+00 -3.14117650E+00
 -1.00911184E+00 -1.00961943E+00  1.00943086E+00  3.14149553E+00 -1.00907806E+00
  1.00895735E+00  3.14153280E+00 -3.14114474E+00 -1.12310933E+00  1.00946612E+00
  1.12299020E+00  3.14102560E+00 -1.00958425E+00  1.04420070E+00  3.14155901E+00
 -1.04426700E+00 -1.08495391E+00  1.01240440E+00  3.10976369E+00 -3.10982775E+00
 -1.01246944E+00  1.08488985E+00
ZRed-IntVec                                I   N=          82
           0           0           0           0           0           0
           0           0           0           0           0           0
           0           0           0           0           0           0
           0           0           0           0           0           0
           0           0           0           0           0           0
           0           0           0           0           0           0
           0           0           0           0           0           0
           0           0           0           0           0           0
           0           0           0           0           0           0
           0           0           0           0           0           0
           0           0           0           0           0           0
           0           0           0           0           0           0
           0           0           0           0           0           0
           0           0           0           0
ZRed-FPVec                                 R   N=          82
  0.00000000E+00  0.00000000E+00  0.00000000E+00  0.00000000E+00  0.00000000E+00
  0.00000000E+00  0.00000000E+00  0.00000000E+00  0.00000000E+00  0.00000000E+00
  0.00000000E+00  0.00000000E+00  0.00000000E+00  0.00000000E+00  0.00000000E+00
  0.00000000E+00  0.00000000E+00  0.00000000E+00  0.00000000E+00  0.00000000E+00
  0.00000000E+00  0.00000000E+00  0.00000000E+00  0.00000000E+00  0.00000000E+00
  0.00000000E+00  0.00000000E+00  0.00000000E+00  0.00000000E+00  0.00000000E+00
  0.00000000E+00  0.00000000E+00  0.00000000E+00  0.00000000E+00  0.00000000E+00
  0.00000000E+00  0.00000000E+00  0.00000000E+00  0.00000000E+00  0.00000000E+00
  0.00000000E+00  0.00000000E+00  0.00000000E+00  0.00000000E+00  0.00000000E+00
  0.00000000E+00  0.00000000E+00  0.00000000E+00  0.00000000E+00  0.00000000E+00
  0.00000000E+00  0.00000000E+00  0.00000000E+00  0.00000000E+00  0.00000000E+00
  0.00000000E+00  0.00000000E+00  0.00000000E+00  0.00000000E+00  0.00000000E+00
  0.00000000E+00  0.00000000E+00  0.00000000E+00  0.00000000E+00  0.00000000E+00
  0.00000000E+00  0.00000000E+00  0.00000000E+00  0.00000000E+00  0.00000000E+00
  0.00000000E+00  0.00000000E+00  0.00000000E+00  0.00000000E+00  0.00000000E+00
  0.00000000E+00  0.00000000E+00  0.00000000E+00  0.00000000E+00  0.00000000E+00
  0.00000000E+00  0.00000000E+00
ZRed-Constraint1                           R   N=          82
  2.07915635E+00  2.07915619E+00  2.90491271E+00  2.90954395E+00  2.07401355E+00
  2.07203595E+00  2.07401239E+00  2.08115154E+00  2.08115124E+00  2.90954402E+00
  2.07915582E+00  2.07915674E+00  2.90491270E+00  2.07401348E+00  2.07203595E+00
  2.07401246E+00  1.85288130E+00  1.91110134E+00  1.90499208E+00  1.91110810E+00
  1.90498838E+00  1.97478088E+00  1.93782087E+00  1.94550056E+00  1.93782552E+00
  1.88095257E+00  1.87797316E+00  1.88095813E+00  1.90630741E+00  1.90631295E+00
  1.98165678E+00  1.85250853E+00  1.90631403E+00  1.90630646E+00  1.90498931E+00
  1.90499123E+00  1.97478090E+00  1.85288126E+00  1.91110483E+00  1.91110453E+00
  1.93782436E+00  1.94550057E+00  1.93782203E+00  1.88095433E+00  1.87797316E+00
  1.88095635E+00 -3.10983635E+00 -1.01248265E+00  1.08488125E+00 -1.08496242E+00
  1.01239127E+00  3.10975517E+00  1.04419334E+00  3.14154704E+00 -1.04427437E+00
  3.14099392E+00 -1.12314109E+00  1.00892357E+00  1.12295851E+00 -3.14117650E+00
 -1.00911184E+00 -1.00961943E+00  1.00943086E+00  3.14149553E+00 -1.00907806E+00
  1.00895735E+00  3.14153280E+00 -3.14114474E+00 -1.12310933E+00  1.00946612E+00
  1.12299020E+00  3.14102560E+00 -1.00958425E+00  1.04420070E+00  3.14155901E+00
 -1.04426700E+00 -1.08495391E+00  1.01240440E+00  3.10976369E+00 -3.10982775E+00
 -1.01246944E+00  1.08488985E+00
ZRed-Constraint2                           R   N=          82
  2.02200695E+00  2.02200695E+00  2.91017823E+00  2.91017823E+00  2.02200695E+00
  2.02200696E+00  2.02200696E+00  2.02200694E+00  2.02200696E+00  2.91017823E+00
  2.02200696E+00  2.02200696E+00  2.91017822E+00  2.02200695E+00  2.02200696E+00
  2.02200696E+00  1.91063323E+00  1.91063324E+00  1.91063324E+00  1.91063323E+00
  1.91063324E+00  1.91063324E+00  1.91063292E+00  1.91063292E+00  1.91063342E+00
  1.91063376E+00  1.91063320E+00  1.91063319E+00  1.91063292E+00  1.91063342E+00
  1.91063292E+00  1.91063320E+00  1.91063377E+00  1.91063319E+00  1.91063292E+00
  1.91063342E+00  1.91063292E+00  1.91063319E+00  1.91063377E+00  1.91063320E+00
  1.91063293E+00  1.91063293E+00  1.91063343E+00  1.91063376E+00  1.91063319E+00
  1.91063318E+00 -3.14159199E+00 -1.04719663E+00  1.04719834E+00 -1.04719690E+00
  1.04719847E+00 -3.14159187E+00  1.04719821E+00 -3.14159173E+00 -1.04719677E+00
  3.13919357E+00 -1.04959676E+00  1.04479820E+00  1.04479846E+00  3.13919344E+00
 -1.04959690E+00 -1.04959664E+00  1.04479834E+00  3.13919331E+00 -1.04774930E+00
  1.04664567E+00  3.14104065E+00  3.14104117E+00 -1.04774918E+00  1.04664580E+00
  1.04664581E+00  3.14104077E+00 -1.04774955E+00  1.04717285E+00  3.14156822E+00
 -1.04722212E+00 -1.04722199E+00  1.04717338E+00  3.14156834E+00  3.14156797E+00
 -1.04722197E+00  1.04717300E+00
SymInf integers                            I   N=          26
           1           1           1           1           1           0
           0           0           0           0           0           0
           0           0           0           0           0           0
           0           0           0           0           0           0
           0           0
RotTr to input orientation                 R   N=          12
  8.16489083E-01 -5.77359571E-01 -1.22627128E-03  5.77359462E-01  8.16489941E-01
 -4.76814942E-04  1.27653183E-03 -3.18685131E-04  9.99999134E-01 -4.99269536E+00
  1.63342711E+00 -1.90590989E-03
Number of contracted shells                I               39
Number of primitive shells                 I               98
Pure/Cartesian d shells                    I                1
Pure/Cartesian f shells                    I                0
Highest angular momentum                   I                1
Largest degree of contraction              I                6
Shell types                                I   N=          39
           0          -1          -1           0           0           0
           0           0          -1          -1           0           0
           0           0           0           0           0          -1
          -1           0           0           0           0           0
          -1          -1           0           0           0           0
           0          -1          -1           0           0           0
           0           0           0
Number of primitives per shell             I   N=          39
           6           3           1           3           1           3
           1           6           3           1           3           1
           3           1           3           1           6           3
           1           3           1           3           1           6
           3           1           3           1           3           1
           6           3           1           3           1           3
           1           3           1
Shell to atom map                          I   N=          39
           1           1           1           2           2           3
           3           4           4           4           5           5
           6           6           7           7           8           8
           8           9           9          10          10          11
          11          11          12          12          13          13
          14          14          14          15          15          16
          16          17          17
Primitive exponents                        R   N=          98
  3.04752488E+03  4.57369518E+02  1.03948685E+02  2.92101553E+01  9.28666296E+00
  3.16392696E+00  7.86827235E+00  1.88128854E+00  5.44249258E-01  1.68714478E-01
  1.87311370E+01  2.82539436E+00  6.40121692E-01  1.61277759E-01  1.87311370E+01
  2.82539436E+00  6.40121692E-01  1.61277759E-01  3.04752488E+03  4.57369518E+02
  1.03948685E+02  2.92101553E+01  9.28666296E+00  3.16392696E+00  7.86827235E+00
  1.88128854E+00  5.44249258E-01  1.68714478E-01  1.87311370E+01  2.82539436E+00
  6.40121692E-01  1.61277759E-01  1.87311370E+01  2.82539436E+00  6.40121692E-01
  1.61277759E-01  1.87311370E+01  2.82539436E+00  6.40121692E-01  1.61277759E-01
  3.04752488E+03  4.57369518E+02  1.03948685E+02  2.92101553E+01  9.28666296E+00
  3.16392696E+00  7.86827235E+00  1.88128854E+00  5.44249258E-01  1.68714478E-01
  1.87311370E+01  2.82539436E+00  6.40121692E-01  1.61277759E-01  1.87311370E+01
  2.82539436E+00  6.40121692E-01  1.61277759E-01  3.04752488E+03  4.57369518E+02
  1.03948685E+02  2.92101553E+01  9.28666296E+00  3.16392696E+00  7.86827235E+00
  1.88128854E+00  5.44249258E-01  1.68714478E-01  1.87311370E+01  2.82539436E+00
  6.40121692E-01  1.61277759E-01  1.87311370E+01  2.82539436E+00  6.40121692E-01
  1.61277759E-01  3.04752488E+03  4.57369518E+02  1.03948685E+02  2.92101553E+01
  9.28666296E+00  3.16392696E+00  7.86827235E+00  1.88128854E+00  5.44249258E-01
  1.68714478E-01  1.87311370E+01  2.82539436E+00  6.40121692E-01  1.61277759E-01
  1.87311370E+01  2.82539436E+00  6.40121692E-01  1.61277759E-01  1.87311370E+01
  2.82539436E+00  6.40121692E-01  1.61277759E-01
Contraction coefficients                   R   N=          98
  1.83473713E-03  1.40373228E-02  6.88426223E-02  2.32184443E-01  4.67941348E-01
  3.62311985E-01 -1.19332420E-01 -1.60854152E-01  1.14345644E+00  1.00000000E+00
  3.34946043E-02  2.34726953E-01  8.13757326E-01  1.00000000E+00  3.34946043E-02
  2.34726953E-01  8.13757326E-01  1.00000000E+00  1.83473713E-03  1.40373228E-02
  6.88426223E-02  2.32184443E-01  4.67941348E-01  3.62311985E-01 -1.19332420E-01
 -1.60854152E-01  1.14345644E+00  1.00000000E+00  3.34946043E-02  2.34726953E-01
  8.13757326E-01  1.00000000E+00  3.34946043E-02  2.34726953E-01  8.13757326E-01
  1.00000000E+00  3.34946043E-02  2.34726953E-01  8.13757326E-01  1.00000000E+00
  1.83473713E-03  1.40373228E-02  6.88426223E-02  2.32184443E-01  4.67941348E-01
  3.62311985E-01 -1.19332420E-01 -1.60854152E-01  1.14345644E+00  1.00000000E+00
  3.34946043E-02  2.34726953E-01  8.13757326E-01  1.00000000E+00  3.34946043E-02
  2.34726953E-01  8.13757326E-01  1.00000000E+00  1.83473713E-03  1.40373228E-02
  6.88426223E-02  2.32184443E-01  4.67941348E-01  3.62311985E-01 -1.19332420E-01
 -1.60854152E-01  1.14345644E+00  1.00000000E+00  3.34946043E-02  2.34726953E-01
  8.13757326E-01  1.00000000E+00  3.34946043E-02  2.34726953E-01  8.13757326E-01
  1.00000000E+00  1.83473713E-03  1.40373228E-02  6.88426223E-02  2.32184443E-01
  4.67941348E-01  3.62311985E-01 -1.19332420E-01 -1.60854152E-01  1.14345644E+00
  1.00000000E+00  3.34946043E-02  2.34726953E-01  8.13757326E-01  1.00000000E+00
  3.34946043E-02  2.34726953E-01  8.13757326E-01  1.00000000E+00  3.34946043E-02
  2.34726953E-01  8.13757326E-01  1.00000000E+00
P(S=P) Contraction coefficients            R   N=          98
  0.00000000E+00  0.00000000E+00  0.00000000E+00  0.00000000E+00  0.00000000E+00
  0.00000000E+00  6.89990666E-02  3.16423961E-01  7.44308291E-01  1.00000000E+00
  0.00000000E+00  0.00000000E+00  0.00000000E+00  0.00000000E+00  0.00000000E+00
  0.00000000E+00  0.00000000E+00  0.00000000E+00  0.00000000E+00  0.00000000E+00
  0.00000000E+00  0.00000000E+00  0.00000000E+00  0.00000000E+00  6.89990666E-02
  3.16423961E-01  7.44308291E-01  1.00000000E+00  0.00000000E+00  0.00000000E+00
  0.00000000E+00  0.00000000E+00  0.00000000E+00  0.00000000E+00  0.00000000E+00
  0.00000000E+00  0.00000000E+00  0.00000000E+00  0.00000000E+00  0.00000000E+00
  0.00000000E+00  0.00000000E+00  0.00000000E+00  0.00000000E+00  0.00000000E+00
  0.00000000E+00  6.89990666E-02  3.16423961E-01  7.44308291E-01  1.00000000E+00
  0.00000000E+00  0.00000000E+00  0.00000000E+00  0.00000000E+00  0.00000000E+00
  0.00000000E+00  0.00000000E+00  0.00000000E+00  0.00000000E+00  0.00000000E+00
  0.00000000E+00  0.00000000E+00  0.00000000E+00  0.00000000E+00  6.89990666E-02
  3.16423961E-01  7.44308291E-01  1.00000000E+00  0.00000000E+00  0.00000000E+00
  0.00000000E+00  0.00000000E+00  0.00000000E+00  0.00000000E+00  0.00000000E+00
  0.00000000E+00  0.00000000E+00  0.00000000E+00  0.00000000E+00  0.00000000E+00
  0.00000000E+00  0.00000000E+00  6.89990666E-02  3.16423961E-01  7.44308291E-01
  1.00000000E+00  0.00000000E+00  0.00000000E+00  0.00000000E+00  0.00000000E+00
  0.00000000E+00  0.00000000E+00  0.00000000E+00  0.00000000E+00  0.00000000E+00
  0.00000000E+00  0.00000000E+00  0.00000000E+00
Coordinates of each shell                  R   N=         117
 -2.43377599E+00  9.93620694E-01  8.68686385E-05 -2.43377599E+00  9.93620694E-01
  8.68686385E-05 -2.43377599E+00  9.93620694E-01  8.68686385E-05 -2.43085891E+00
  2.24263018E+00 -1.66209782E+00 -2.43085891E+00  2.24263018E+00 -1.66209782E+00
 -2.43090590E+00  2.24243398E+00  1.66241885E+00 -2.43090590E+00  2.24243398E+00
  1.66241885E+00 -4.85267504E+00 -6.14933059E-01 -5.37765879E-05 -4.85267504E+00
 -6.14933059E-01 -5.37765879E-05 -4.85267504E+00 -6.14933059E-01 -5.37765879E-05
 -4.93365653E+00 -1.83733369E+00  1.67347869E+00 -4.93365653E+00 -1.83733369E+00
  1.67347869E+00 -6.55190702E+00  5.70791884E-01  7.57906906E-05 -6.55190702E+00
  5.70791884E-01  7.57906906E-05 -4.93368039E+00 -1.83702067E+00 -1.67381224E+00
 -4.93368039E+00 -1.83702067E+00 -1.67381224E+00 -3.33741306E-08 -6.00801023E-01
  3.35751159E-05 -3.33741306E-08 -6.00801023E-01  3.35751159E-05 -3.33741306E-08
 -6.00801023E-01  3.35751159E-05  5.10681099E-05 -1.85119191E+00  1.66367848E+00
  5.10681099E-05 -1.85119191E+00  1.66367848E+00 -5.13188617E-05 -1.85125667E+00
 -1.66356228E+00 -5.13188617E-05 -1.85125667E+00 -1.66356228E+00  2.43377601E+00
  9.93620680E-01 -8.54506547E-05  2.43377601E+00  9.93620680E-01 -8.54506547E-05
  2.43377601E+00  9.93620680E-01 -8.54506547E-05  2.43087690E+00  2.24241289E+00
 -1.66243275E+00  2.43087690E+00  2.24241289E+00 -1.66243275E+00  2.43088816E+00
  2.24265131E+00  1.66208389E+00  2.43088816E+00  2.24265131E+00  1.66208389E+00
  4.85267505E+00 -6.14933079E-01  2.19598735E-05  4.85267505E+00 -6.14933079E-01
  2.19598735E-05  4.85267505E+00 -6.14933079E-01  2.19598735E-05  4.93363552E+00
 -1.83734288E+00 -1.67350473E+00  4.93363552E+00 -1.83734288E+00 -1.67350473E+00
  6.55190706E+00  5.70791826E-01 -1.31142411E-04  6.55190706E+00  5.70791826E-01
 -1.31142411E-04  4.93370140E+00 -1.83701152E+00  1.67378620E+00  4.93370140E+00
 -1.83701152E+00  1.67378620E+00
Num ILSW                                   I              100
ILSW                                       I   N=         100
           0           1           0           0           2           0
           0           0           0           0         402          -1
           5           0           0           0           2           0
           0           0           1           0           1           0
           1           0           0           0           0           0
           0           0      100000           0          -1           0
           0           0           0           0           0           0
           0           0           0           1           0           0
           0 -2000000000           1           0           0           0
           0           0           4          52           0           0
           0           0           5           0           0           0
           0           0           0           0           0           1
           0           0           0           0           0           0
           0           0           0           0           0           0
           0           0           0           0           0           0
           0           0           0           0           0           0
           0           0           0           0
Num RLSW                                   I               52
RLSW                                       R   N=          52
  8.00000000E-01  7.20000000E-01  1.00000000E+00  8.10000000E-01  2.00000000E-01
  0.00000000E+00  0.00000000E+00  1.00000000E+00  0.00000000E+00  0.00000000E+00
  0.00000000E+00  0.00000000E+00  1.00000000E+00  0.00000000E+00  0.00000000E+00
  0.00000000E+00  0.00000000E+00  1.00000000E+00  0.00000000E+00  0.00000000E+00
  0.00000000E+00  0.00000000E+00  1.00000000E+00  0.00000000E+00  0.00000000E+00
  0.00000000E+00  0.00000000E+00  1.00000000E+00  0.00000000E+00  0.00000000E+00
  0.00000000E+00  0.00000000E+00  1.00000000E+00  0.00000000E+00  0.00000000E+00
  0.00000000E+00  0.00000000E+00  0.00000000E+00  1.00000000E+00  1.00000000E+00
  0.00000000E+00  1.00000000E+00  0.00000000E+00  0.00000000E+00  0.00000000E+00
  0.00000000E+00  0.00000000E+00  0.00000000E+00  0.00000000E+00  0.00000000E+00
  0.00000000E+00  0.00000000E+00
MxBond                                     I                4
NBond                                      I   N=          17
           4           1           1           4           1           1
           1           4           1           1           4           1
           1           4           1           1           1
IBond                                      I   N=          68
           2           3           4           8           1           0
           0           0           1           0           0           0