18   
Iteration 0 Energy -376.54215891
C        0.1507853000    0.0000382000    0.0112427000
C       -0.5762909000   -0.7003065000    1.0342755000
C       -1.9936587000   -0.6983541000    1.0139738000
C       -2.6948238000    0.0035499000   -0.0110379000
C       -1.9759163000    0.7028697000   -1.0255402000
C       -0.5584432000    0.6999387000   -1.0245084000
C        1.6576763000   -0.0086300000    0.0188127000
N        2.3681168000    0.0797833000   -1.1638087000
N        2.3550762000   -0.1128689000    1.2079380000
H       -0.0395336000   -1.2746573000    1.8142167000
H       -2.5545362000   -1.2497353000    1.7936294000
H       -3.8033817000    0.0052501000   -0.0195291000
H       -2.5231855000    1.2551165000   -1.8141990000
H       -0.0080546000    1.2719896000   -1.7966370000
H        3.4195272000    0.1171174000   -1.1910575000
H        1.8578176000    0.0520615000   -2.0815551000
H        3.4055255000   -0.1652817000    1.2454947000
H        1.8368946000   -0.0742216000    2.1208702000
18   
Iteration 1 Energy -376.54206998
C        0.1506803021   -0.0281664503   -0.0014976605
C       -0.5782059832   -0.6877750362    1.0469847624
C       -1.9955746938   -0.6724581472    1.0336177473
C       -2.6939363741    0.0099784220   -0.0063651838
C       -1.9739835577    0.6790862694   -1.0403138199
C       -0.5566224429    0.6616957679   -1.0452675549
C        1.6575205174   -0.0309436416    0.0125515684
N        2.3715135489    0.1335301627   -1.1597638793
N        2.3503796282   -0.1605621587    1.2018512917
H       -0.0431470361   -1.2435278402    1.8414193030
H       -2.5581895620   -1.1963508687    1.8307967219
H       -3.8024347821    0.0229199871   -0.0094756561
H       -2.5196884864    1.2200749659   -1.8378280973
H       -0.0041415689    1.2138829192   -1.8302378267
H        3.4220443304    0.1936568383   -1.1790446314
H        1.8661991395    0.1434808652   -2.0806377735
H        3.4015068624   -0.1925908593    1.2432566842
H        1.8269169838   -0.1624537068    2.1125998779
18   
Iteration 2 Energy -376.54193375
C        0.1520945864   -0.0365034205   -0.0105959638
C       -0.5815291407   -0.6695209675    1.0519584181
C       -1.9986667811   -0.6486148737    1.0481531318
C       -2.7037413027    0.0137782569   -0.0000774294
C       -1.9823174308    0.6574637247   -1.0487947831
C       -0.5651643981    0.6355878249   -1.0603364720
C        1.6599688735   -0.0304429244    0.0050447127
N        2.3891818754    0.1784149615   -1.1510466339
N        2.3497813686   -0.1978921869    1.1916407747
H       -0.0494206688   -1.2153960283    1.8550327677
H       -2.5572192268   -1.1532488068    1.8604433197
H       -3.8122661474    0.0312715313    0.0021588898
H       -2.5285742686    1.1856357714   -1.8544529218
H       -0.0205471756    1.1731442842   -1.8604972866
H        3.4396372434    0.2388659223   -1.1489775203
H        1.9011529811    0.2076367018   -2.0803127969
H        3.4008711893   -0.2236231264    1.2326955110
H        1.8254683829   -0.2424340864    2.1002792167
18   
Iteration 3 Energy -376.54160913
C        0.1494871906   -0.0523905276   -0.0130113115
C       -0.5821151658   -0.6505438942    1.0721917713
C       -1.9983637346   -0.6179461812    1.0673665583
C       -2.6965885391    0.0194156683   -0.0010909057
C       -1.9775602115    0.6291391942   -1.0714817148
C       -0.5611195243    0.5982303976   -1.0819300648
C        1.6565559629   -0.0363609543    0.0084633266
N        2.3767664775    0.2451903489   -1.1384061543
N        2.3540087599   -0.2509686431    1.1839161190
H       -0.0555939739   -1.1802531748    1.8897342261
H       -2.5610518548   -1.0931186125    1.8944303488
H       -3.8049501061    0.0441951202    0.0023802467
H       -2.5223225407    1.1373755830   -1.8908917205
H       -0.0155445551    1.1098877486   -1.8982416580
H        3.4265345113    0.3123318760   -1.1365459512
H        1.8875945706    0.3078993323   -2.0651102067
H        3.4053073040   -0.2629226437    1.2192191329
H        1.8362379039   -0.3531844243    2.0911227357
18   
Iteration 4 Energy -376.54165955
C        0.1505475736   -0.0412837513   -0.0091300368
C       -0.5842921475   -0.6401883728    1.0734597837
C       -2.0008139986   -0.6140533020    1.0689706911
C       -2.7016168835    0.0171635815   -0.0013206488
C       -1.9799752030    0.6231640459   -1.0721074237
C       -0.5631999324    0.5994769094   -1.0817505898
C        1.6577255623   -0.0287535249    0.0100773839
N        2.3819905917    0.2541962564   -1.1345451921
N        2.3570861929   -0.2598452307    1.1812432202
H       -0.0591374067   -1.1666937491    1.8938797377
H       -2.5614197894   -1.0891908883    1.8974706697
H       -3.8100901384    0.0382221673    0.0001413364
H       -2.5248731890    1.1238255717   -1.8960220325
H       -0.0213405485    1.1073743182   -1.9028154782
H        3.4326794698    0.3059131571   -1.1369115103
H        1.8936972436    0.3243293463   -2.0610773809
H        3.4083834787   -0.2772613646    1.2134670845
H        1.8421509988   -0.3697589812    2.0891737705
18   
Iteration 5 Energy -376.54166030
C        0.1505076037   -0.0304730078   -0.0036814006
C       -0.5831789592   -0.6314181643    1.0782326032
C       -1.9998999358   -0.6100553272    1.0684686804
C       -2.7040497118    0.0145696632   -0.0035410553
C       -1.9852857060    0.6202808187   -1.0762390781
C       -0.5683563167    0.6007615414   -1.0787109857
C        1.6577877997   -0.0229472165    0.0103573515
N        2.3847914194    0.2619298982   -1.1323344792
N        2.3593234341   -0.2688743807    1.1770067508
H       -0.0588664253   -1.1523047307    1.9027699701
H       -2.5596818815   -1.0854568449    1.8973276737
H       -3.8126142854    0.0299326675   -0.0025504763
H       -2.5301204161    1.1142904861   -1.9042559382
H       -0.0286569381    1.1062328951   -1.9025670532
H        3.4363536220    0.2920900573   -1.1275693908
H        1.9019113129    0.3418420807   -2.0609288222
H        3.4106876549   -0.2895736034    1.2040880869
H        1.8483044265   -0.3839966030    2.0865745227
18   
Iteration 6 Energy -376.54167411
C        0.1503632964   -0.0287392801   -0.0042711989
C       -0.5840146032   -0.6300542344    1.0771905021
C       -2.0007698000   -0.6114856458    1.0698627161
C       -2.7029485241    0.0128962803   -0.0033819109
C       -1.9819582691    0.6191489536   -1.0744575086
C       -0.5650424383    0.6028674439   -1.0811741613
C        1.6574941643   -0.0237291125    0.0109952107
N        2.3829294108    0.2615780393   -1.1325268764
N        2.3586404489   -0.2698595912    1.1778948001
H       -0.0586772092   -1.1487257405    1.9024047053
H       -2.5601548565   -1.0874552044    1.8986950965
H       -3.8115239959    0.0281153520   -0.0042225543
H       -2.5275668622    1.1130195947   -1.9019799439
H       -0.0253682684    1.1094164774   -1.9045064575
H        3.4345649284    0.2896754970   -1.1320884110
H        1.8972835649    0.3431247784   -2.0595636521
H        3.4099738637   -0.2904320379    1.2064490923
H        1.8469665760   -0.3828593442    2.0873304962
18   
Iteration 7 Energy -376.54167265
C        0.1510961611   -0.0311096715   -0.0031392420
C       -0.5841004031   -0.6322240775    1.0779092162
C       -2.0008119400   -0.6119111195    1.0683658438
C       -2.7021882478    0.0131705341   -0.0050405132
C       -1.9809208615    0.6203811219   -1.0753498718
C       -0.5640632710    0.6017560240   -1.0794954949
C        1.6583588863   -0.0256008520    0.0126810442
N        2.3811101587    0.2600659635   -1.1324362814
N        2.3605145846   -0.2686893767    1.1797263337
H       -0.0598404959   -1.1512488632    1.9035628504
H       -2.5614379603   -1.0878822538    1.8963504641
H       -3.8107530518    0.0287163258   -0.0064157582
H       -2.5253441118    1.1159559769   -1.9026625898
H       -0.0227358051    1.1092705517   -1.9011282131
H        3.4325643875    0.2929144597   -1.1422465300
H        1.8894893283    0.3390397715   -2.0565000325
H        3.4118706574   -0.2872460779    1.2092951199
H        1.8487828163   -0.3792529700    2.0893621848
18   
Iteration 8 Energy -376.54167668
C        0.1505915634   -0.0299040756   -0.0037025712
C       -0.5838221482   -0.6312915443    1.0777258513
C       -2.0005341389   -0.6117275043    1.0690711985
C       -2.7022822356    0.0129263889   -0.0043261515
C       -1.9816016852    0.6200684493   -1.0750936094
C       -0.5647456431    0.6024207684   -1.0802860303
C        1.6578510479   -0.0246627193    0.0116861711
N        2.3821422397    0.2608735027   -1.1324773610
N        2.3594211025   -0.2695256688    1.1786599823
H       -0.0589675455   -1.1499609977    1.9032410860
H       -2.5606079428   -1.0877667662    1.8973940846
H       -3.8108505037    0.0280787218   -0.0053997940
H       -2.5266922884    1.1150216451   -1.9023324889
H       -0.0241887355    1.1099679145   -1.9024166449
H        3.4337475606    0.2899232612   -1.1360773589
H        1.8941461381    0.3400975864   -2.0584687997
H        3.4107976744   -0.2879994936    1.2072784469
H        1.8479776685   -0.3805247275    2.0884418689
18   
Iteration 9 Energy -376.54167691
C        0.1507970626   -0.0297132446   -0.0035504263
C       -0.5837328924   -0.6311984697    1.0777158874
C       -2.0004603593   -0.6117103706    1.0688519127
C       -2.7024216424    0.0128508287   -0.0044555309
C       -1.9814338323    0.6200432155   -1.0749882174
C       -0.5645642297    0.6025496725   -1.0801323985
C        1.6580317767   -0.0246551491    0.0117981218
N        2.3819213750    0.2610859555   -1.1325831084
N        2.3598101638   -0.2698021254    1.1786068772
H       -0.0589532137   -1.1498164912    1.9033086951
H       -2.5605109697   -1.0878684314    1.8971186686
H       -3.8109955394    0.0278892188   -0.0056496571
H       -2.5264375730    1.1149950566   -1.9022806461
H       -0.0239911302    1.1102639721   -1.9021509868
H        3.4335678728    0.2888629076   -1.1360372478
H        1.8939607095    0.3394353131   -2.0586881964
H        3.4111867169   -0.2876524291    1.2077709833
H        1.8483055876   -0.3798405181    2.0884763895
