
    -----------------------------------------------------------------------
          Psi4: An Open-Source Ab Initio Electronic Structure Package
                               Psi4 1.3.2 release

                         Git: Rev {HEAD} ecbda83 


    R. M. Parrish, L. A. Burns, D. G. A. Smith, A. C. Simmonett,
    A. E. DePrince III, E. G. Hohenstein, U. Bozkaya, A. Yu. Sokolov,
    R. Di Remigio, R. M. Richard, J. F. Gonthier, A. M. James,
    H. R. McAlexander, A. Kumar, M. Saitow, X. Wang, B. P. Pritchard,
    P. Verma, H. F. Schaefer III, K. Patkowski, R. A. King, E. F. Valeev,
    F. A. Evangelista, J. M. Turney, T. D. Crawford, and C. D. Sherrill,
    J. Chem. Theory Comput. 13(7) pp 3185--3197 (2017).
    (doi: 10.1021/acs.jctc.7b00174)


                         Additional Contributions by
    P. Kraus, H. Kruse, M. H. Lechner, M. C. Schieber, R. A. Shaw,
    A. Alenaizan, R. Galvelis, Z. L. Glick, S. Lehtola, and J. P. Misiewicz

    -----------------------------------------------------------------------


    Psi4 started on: Friday, 14 May 2021 09:26AM

    Process ID: 1426
    Host:       aaojha
    PSIDATADIR: /home/aaojha/anaconda3/envs/torsiondrive/share/psi4
    Memory:     500.0 MiB
    Threads:    1
    
  ==> Input File <==

--------------------------------------------------------------------------
memory 50 GB
molecule {
1 1
C           0.1675205     0.0021577     0.0151804
C          -0.5579112    -1.2316562     0.1630357
C          -1.9747996    -1.2249540     0.1609202
C          -2.6854992     0.0012381    -0.0009600
C          -1.9739347     1.2270879    -0.1607737
C          -0.5570106     1.2336978    -0.1550956
C           1.6746815     0.0007692    -0.0038664
N           2.3850956    -1.1721948    -0.1899545
N           2.3904332     1.1669802     0.2006839
H          -0.0256339    -2.1893079     0.3223591
H          -2.5278831    -2.1757088     0.2897517
H          -3.7941630     0.0010929    -0.0049074
H          -2.5262000     2.1770325    -0.2987058
H          -0.0236585     2.1904194    -0.3166150
H           3.4368721    -1.1951293    -0.1875292
H           1.8838110    -2.0542323    -0.4594132
H           3.4417421     1.1905908     0.1736102
H           1.8921610     2.0541795     0.4581354
}
set {
basis STO-3G
}
gradient('BLYP')
--------------------------------------------------------------------------

  Memory set to  46.566 GiB by Python driver.
gradient() will perform analytic gradient computation.

*** tstart() called on aaojha
*** at Fri May 14 09:26:27 2021

   => Loading Basis Set <=

    Name: STO-3G
    Role: ORBITAL
    Keyword: BASIS
    atoms 1-7   entry C          line    61 file /home/aaojha/anaconda3/envs/torsiondrive/share/psi4/basis/sto-3g.gbs 
    atoms 8-9   entry N          line    71 file /home/aaojha/anaconda3/envs/torsiondrive/share/psi4/basis/sto-3g.gbs 
    atoms 10-18 entry H          line    19 file /home/aaojha/anaconda3/envs/torsiondrive/share/psi4/basis/sto-3g.gbs 


         ---------------------------------------------------------
                                   SCF
               by Justin Turney, Rob Parrish, Andy Simmonett
                          and Daniel G. A. Smith
                              RKS Reference
                        1 Threads,  47683 MiB Core
         ---------------------------------------------------------

  ==> Geometry <==

    Molecular point group: c1
    Full point group: C1

    Geometry (in Angstrom), charge = 1, multiplicity = 1:

       Center              X                  Y                   Z               Mass       
    ------------   -----------------  -----------------  -----------------  -----------------
         C            0.186025811865     0.001943008999     0.012305895557    12.000000000000
         C           -0.539405888135    -1.231870891001     0.160161195557    12.000000000000
         C           -1.956294288135    -1.225168691001     0.158045695557    12.000000000000
         C           -2.666993888135     0.001023408999    -0.003834504443    12.000000000000
         C           -1.955429388135     1.226873208999    -0.163648204443    12.000000000000
         C           -0.538505288135     1.233483108999    -0.157970104443    12.000000000000
         C            1.693186811865     0.000554508999    -0.006740904443    12.000000000000
         N            2.403600911865    -1.172409491001    -0.192829004443    14.003074004430
         N            2.408938511865     1.166765508999     0.197809395557    14.003074004430
         H           -0.007128588135    -2.189522591001     0.319484595557     1.007825032230
         H           -2.509377788135    -2.175923491001     0.286877195557     1.007825032230
         H           -3.775657688135     0.000878208999    -0.007781904443     1.007825032230
         H           -2.507694688135     2.176817808999    -0.301580304443     1.007825032230
         H           -0.005153188135     2.190204708999    -0.319489504443     1.007825032230
         H            3.455377411865    -1.195343991001    -0.190403704443     1.007825032230
         H            1.902316311865    -2.054446991001    -0.462287704443     1.007825032230
         H            3.460247411865     1.190376108999     0.170735695557     1.007825032230
         H            1.910666311865     2.053964808999     0.455260895557     1.007825032230

  Running in c1 symmetry.

  Rotational constants: A =      0.11657  B =      0.03808  C =      0.02901 [cm^-1]
  Rotational constants: A =   3494.75617  B =   1141.64443  C =    869.67108 [MHz]
  Nuclear repulsion =  406.316440162868901

  Charge       = 1
  Multiplicity = 1
  Electrons    = 64
  Nalpha       = 32
  Nbeta        = 32

  ==> Algorithm <==

  SCF Algorithm Type is DF.
  DIIS enabled.
  MOM disabled.
  Fractional occupation disabled.
  Guess Type is SAD.
  Energy threshold   = 1.00e-08
  Density threshold  = 1.00e-08
  Integral threshold = 0.00e+00

  ==> Primary Basis <==

  Basis Set: STO-3G
    Blend: STO-3G
    Number of shells: 36
    Number of basis function: 54
    Number of Cartesian functions: 54
    Spherical Harmonics?: true
    Max angular momentum: 1

  ==> DFT Potential <==

   => Composite Functional: BLYP <= 

    BLYP GGA Exchange-Correlation Functional

    P.J. Stephens et. al., J. Phys. Chem., 98, 11623-11627, 1994
    B. Miehlich et. al., Chem. Phys. Lett., 157(3), 200-206 1989


    Deriv               =              1
    GGA                 =           TRUE
    Meta                =          FALSE

    Exchange Hybrid     =          FALSE
    MP2 Hybrid          =          FALSE

   => Exchange Functionals <=

    1.0000     XC_GGA_X_B88

   => Correlation Functionals <=

    1.0000     XC_GGA_C_LYP

   => Molecular Quadrature <=

    Radial Scheme          =       TREUTLER
    Pruning Scheme         =           FLAT
    Nuclear Scheme         =       TREUTLER

    BS radius alpha        =              1
    Pruning alpha          =              1
    Radial Points          =             75
    Spherical Points       =            302
    Total Points           =         395097
    Total Blocks           =           2974
    Max Points             =            256
    Max Functions          =             51

   => Loading Basis Set <=

    Name: (STO-3G AUX)
    Role: JKFIT
    Keyword: DF_BASIS_SCF
    atoms 1-7   entry C          line   203 file /home/aaojha/anaconda3/envs/torsiondrive/share/psi4/basis/def2-svp-jkfit.gbs 
    atoms 8-9   entry N          line   263 file /home/aaojha/anaconda3/envs/torsiondrive/share/psi4/basis/def2-svp-jkfit.gbs 
    atoms 10-18 entry H          line    23 file /home/aaojha/anaconda3/envs/torsiondrive/share/psi4/basis/def2-svp-jkfit.gbs 

  ==> Pre-Iterations <==

   -------------------------------------------------------
    Irrep   Nso     Nmo     Nalpha   Nbeta   Ndocc  Nsocc
   -------------------------------------------------------
     A         54      54       0       0       0       0
   -------------------------------------------------------
    Total      54      54      32      32      32       0
   -------------------------------------------------------

  ==> Integral Setup <==

  DFHelper Memory: AOs need 0.024 GiB; user supplied 34.425 GiB. Using in-core AOs.

  ==> MemDFJK: Density-Fitted J/K Matrices <==

    J tasked:                   Yes
    K tasked:                    No
    wK tasked:                   No
    OpenMP threads:               1
    Memory [MiB]:             35251
    Algorithm:                 Core
    Schwarz Cutoff:           1E-12
    Mask sparsity (%):       1.9890
    Fitting Condition:        1E-10

   => Auxiliary Basis Set <=

  Basis Set: (STO-3G AUX)
    Blend: DEF2-SVP-JKFIT
    Number of shells: 279
    Number of basis function: 841
    Number of Cartesian functions: 989
    Spherical Harmonics?: true
    Max angular momentum: 4

  Cached 100.0% of DFT collocation blocks in 0.499 [GiB].

  Minimum eigenvalue in the overlap matrix is 1.8839219157E-01.
  Using Symmetric Orthogonalization.

  SCF Guess: Superposition of Atomic Densities via on-the-fly atomic UHF.

  ==> Iterations <==

                           Total Energy        Delta E     RMS |[F,P]|

   @DF-RKS iter SAD:  -373.14387097410383   -3.73144e+02   0.00000e+00 
   @DF-RKS iter   1:  -376.48708506452192   -3.34321e+00   5.06541e-03 DIIS
   @DF-RKS iter   2:  -376.34589064168063    1.41194e-01   9.84497e-03 DIIS
   @DF-RKS iter   3:  -376.53533465474379   -1.89444e-01   1.72786e-03 DIIS
   @DF-RKS iter   4:  -376.54059265320905   -5.25800e-03   6.87723e-04 DIIS
   @DF-RKS iter   5:  -376.54162616854819   -1.03352e-03   1.55886e-04 DIIS
   @DF-RKS iter   6:  -376.54167312057041   -4.69520e-05   4.62537e-05 DIIS
   @DF-RKS iter   7:  -376.54167664358795   -3.52302e-06   1.81750e-05 DIIS
   @DF-RKS iter   8:  -376.54167719882696   -5.55239e-07   7.90403e-06 DIIS
   @DF-RKS iter   9:  -376.54167733077816   -1.31951e-07   9.39293e-07 DIIS
   @DF-RKS iter  10:  -376.54167733164377   -8.65612e-10   6.02060e-07 DIIS
   @DF-RKS iter  11:  -376.54167733251074   -8.66976e-10   5.27459e-08 DIIS
   @DF-RKS iter  12:  -376.54167733251290   -2.16005e-12   4.36330e-08 DIIS
   @DF-RKS iter  13:  -376.54167733251677   -3.86535e-12   7.06146e-09 DIIS
  Energy and wave function converged.


  ==> Post-Iterations <==

    Orbital Energies [Eh]
    ---------------------

    Doubly Occupied:                                                      

       1A    -14.120503     2A    -14.120342     3A    -10.091600  
       4A     -9.954359     5A     -9.928101     6A     -9.927970  
       7A     -9.916220     8A     -9.913039     9A     -9.912852  
      10A     -1.041119    11A     -0.961509    12A     -0.882069  
      13A     -0.806045    14A     -0.782943    15A     -0.737817  
      16A     -0.677811    17A     -0.668250    18A     -0.634672  
      19A     -0.632565    20A     -0.593134    21A     -0.570764  
      22A     -0.538597    23A     -0.507225    24A     -0.493890  
      25A     -0.487809    26A     -0.483552    27A     -0.419621  
      28A     -0.417647    29A     -0.412100    30A     -0.361419  
      31A     -0.325399    32A     -0.320435  

    Virtual:                                                              

      33A     -0.189531    34A     -0.107111    35A     -0.087908  
      36A      0.009963    37A      0.028474    38A      0.044479  
      39A      0.062565    40A      0.104451    41A      0.123991  
      42A      0.154389    43A      0.184794    44A      0.190927  
      45A      0.215358    46A      0.228592    47A      0.259375  
      48A      0.273922    49A      0.345721    50A      0.351889  
      51A      0.358120    52A      0.371913    53A      0.491035  
      54A      0.532623  

    Final Occupation by Irrep:
              A 
    DOCC [    32 ]

  @DF-RKS Final Energy:  -376.54167733251677

   => Energetics <=

    Nuclear Repulsion Energy =            406.3164401628689006
    One-Electron Energy =               -1303.4270097365158563
    Two-Electron Energy =                 574.8614716090869479
    DFT Exchange-Correlation Energy =     -54.2925793679568685
    Empirical Dispersion Energy =           0.0000000000000000
    VV10 Nonlocal Energy =                  0.0000000000000000
    Total Energy =                       -376.5416773325168265

Computation Completed


Properties will be evaluated at   0.000000,   0.000000,   0.000000 [a0]

Properties computed using the SCF density matrix

  Nuclear Dipole Moment: [e a0]
     X:     1.7893      Y:    -0.0028      Z:    -0.0461

  Electronic Dipole Moment: [e a0]
     X:     0.6926      Y:     0.0067      Z:     0.0118

  Dipole Moment: [e a0]
     X:     2.4820      Y:     0.0039      Z:    -0.0343     Total:     2.4822

  Dipole Moment: [D]
     X:     6.3086      Y:     0.0100      Z:    -0.0873     Total:     6.3092


*** tstop() called on aaojha at Fri May 14 09:26:35 2021
Module time:
	user time   =       7.26 seconds =       0.12 minutes
	system time =       0.23 seconds =       0.00 minutes
	total time  =          8 seconds =       0.13 minutes
Total time:
	user time   =       7.26 seconds =       0.12 minutes
	system time =       0.23 seconds =       0.00 minutes
	total time  =          8 seconds =       0.13 minutes

*** tstart() called on aaojha
*** at Fri May 14 09:26:35 2021


         ------------------------------------------------------------
                                   SCF GRAD                          
                          Rob Parrish, Justin Turney,                
                       Andy Simmonett, and Alex Sokolov              
         ------------------------------------------------------------

  ==> Geometry <==

    Molecular point group: c1
    Full point group: C1

    Geometry (in Angstrom), charge = 1, multiplicity = 1:

       Center              X                  Y                   Z               Mass       
    ------------   -----------------  -----------------  -----------------  -----------------
         C            0.186025811865     0.001943008999     0.012305895557    12.000000000000
         C           -0.539405888135    -1.231870891001     0.160161195557    12.000000000000
         C           -1.956294288135    -1.225168691001     0.158045695557    12.000000000000
         C           -2.666993888135     0.001023408999    -0.003834504443    12.000000000000
         C           -1.955429388135     1.226873208999    -0.163648204443    12.000000000000
         C           -0.538505288135     1.233483108999    -0.157970104443    12.000000000000
         C            1.693186811865     0.000554508999    -0.006740904443    12.000000000000
         N            2.403600911865    -1.172409491001    -0.192829004443    14.003074004430
         N            2.408938511865     1.166765508999     0.197809395557    14.003074004430
         H           -0.007128588135    -2.189522591001     0.319484595557     1.007825032230
         H           -2.509377788135    -2.175923491001     0.286877195557     1.007825032230
         H           -3.775657688135     0.000878208999    -0.007781904443     1.007825032230
         H           -2.507694688135     2.176817808999    -0.301580304443     1.007825032230
         H           -0.005153188135     2.190204708999    -0.319489504443     1.007825032230
         H            3.455377411865    -1.195343991001    -0.190403704443     1.007825032230
         H            1.902316311865    -2.054446991001    -0.462287704443     1.007825032230
         H            3.460247411865     1.190376108999     0.170735695557     1.007825032230
         H            1.910666311865     2.053964808999     0.455260895557     1.007825032230

  Nuclear repulsion =  406.316440162868901

  ==> Basis Set <==

  Basis Set: STO-3G
    Blend: STO-3G
    Number of shells: 36
    Number of basis function: 54
    Number of Cartesian functions: 54
    Spherical Harmonics?: true
    Max angular momentum: 1

  ==> DFJKGrad: Density-Fitted SCF Gradients <==

    Gradient:                    1
    J tasked:                  Yes
    K tasked:                   No
    wK tasked:                  No
    OpenMP threads:              1
    Integrals threads:           1
    Memory [MiB]:            35762
    Schwarz Cutoff:          0E+00
    Fitting Condition:       1E-10

   => Auxiliary Basis Set <=

  Basis Set: (STO-3G AUX)
    Blend: DEF2-SVP-JKFIT
    Number of shells: 279
    Number of basis function: 841
    Number of Cartesian functions: 989
    Spherical Harmonics?: true
    Max angular momentum: 4

  ==> DFT Potential <==

   => Composite Functional: BLYP <= 

    BLYP GGA Exchange-Correlation Functional

    P.J. Stephens et. al., J. Phys. Chem., 98, 11623-11627, 1994
    B. Miehlich et. al., Chem. Phys. Lett., 157(3), 200-206 1989


    Deriv               =              1
    GGA                 =           TRUE
    Meta                =          FALSE

    Exchange Hybrid     =          FALSE
    MP2 Hybrid          =          FALSE

   => Exchange Functionals <=

    1.0000     XC_GGA_X_B88

   => Correlation Functionals <=

    1.0000     XC_GGA_C_LYP

   => Molecular Quadrature <=

    Radial Scheme          =       TREUTLER
    Pruning Scheme         =           FLAT
    Nuclear Scheme         =       TREUTLER

    BS radius alpha        =              1
    Pruning alpha          =              1
    Radial Points          =             75
    Spherical Points       =            302
    Total Points           =         395097
    Total Blocks           =           2974
    Max Points             =            256
    Max Functions          =             51


  -Total Gradient:
     Atom            X                  Y                   Z
    ------   -----------------  -----------------  -----------------
       1        0.000029285225     0.000136820534     0.003221157785
       2       -0.000016170101    -0.000122503365    -0.001646732731
       3       -0.000061626701    -0.000092026526     0.000014085140
       4        0.000101209523     0.000001326847    -0.000000625366
       5       -0.000035379409     0.000046603493    -0.000006600778
       6        0.000015509260    -0.000018938982     0.000008670404
       7        0.000115425453     0.000301498012    -0.003311104146
       8       -0.000020127378    -0.000277280844     0.001632357746
       9       -0.000112261568     0.000137589880     0.000116062695
      10       -0.000003439368     0.000001547812    -0.000003777504
      11       -0.000001901870    -0.000008768956     0.000002917669
      12        0.000007646310    -0.000003609159     0.000000190956
      13        0.000002530852     0.000006640329    -0.000002726655
      14       -0.000014870784     0.000005577006    -0.000001543936
      15       -0.000008602000    -0.000010152110     0.000022847647
      16       -0.000000901318    -0.000015300979     0.000040016680
      17       -0.000007798159    -0.000116321073    -0.000053602281
      18        0.000001957798     0.000026108019    -0.000031229608


*** tstop() called on aaojha at Fri May 14 09:26:37 2021
Module time:
	user time   =       2.10 seconds =       0.03 minutes
	system time =       0.01 seconds =       0.00 minutes
	total time  =          2 seconds =       0.03 minutes
Total time:
	user time   =       9.36 seconds =       0.16 minutes
	system time =       0.24 seconds =       0.00 minutes
	total time  =         10 seconds =       0.17 minutes

    Psi4 stopped on: Friday, 14 May 2021 09:26AM
    Psi4 wall time for execution: 0:00:09.64

*** Psi4 exiting successfully. Buy a developer a beer!
