
    -----------------------------------------------------------------------
          Psi4: An Open-Source Ab Initio Electronic Structure Package
                               Psi4 1.3.2 release

                         Git: Rev {HEAD} ecbda83 


    R. M. Parrish, L. A. Burns, D. G. A. Smith, A. C. Simmonett,
    A. E. DePrince III, E. G. Hohenstein, U. Bozkaya, A. Yu. Sokolov,
    R. Di Remigio, R. M. Richard, J. F. Gonthier, A. M. James,
    H. R. McAlexander, A. Kumar, M. Saitow, X. Wang, B. P. Pritchard,
    P. Verma, H. F. Schaefer III, K. Patkowski, R. A. King, E. F. Valeev,
    F. A. Evangelista, J. M. Turney, T. D. Crawford, and C. D. Sherrill,
    J. Chem. Theory Comput. 13(7) pp 3185--3197 (2017).
    (doi: 10.1021/acs.jctc.7b00174)


                         Additional Contributions by
    P. Kraus, H. Kruse, M. H. Lechner, M. C. Schieber, R. A. Shaw,
    A. Alenaizan, R. Galvelis, Z. L. Glick, S. Lehtola, and J. P. Misiewicz

    -----------------------------------------------------------------------


    Psi4 started on: Friday, 14 May 2021 10:16AM

    Process ID: 29043
    Host:       aaojha
    PSIDATADIR: /home/aaojha/anaconda3/envs/torsiondrive/share/psi4
    Memory:     500.0 MiB
    Threads:    1
    
  ==> Input File <==

--------------------------------------------------------------------------
memory 50 GB
molecule {
1 1
C           0.1550173    -0.0259282     0.0043579
C          -0.5782062    -0.6659321    -1.0554821
C          -1.9949680    -0.6488293    -1.0465295
C          -2.6986099     0.0107515     0.0045437
C          -1.9788554     0.6555596     1.0536921
C          -0.5619387     0.6409809     1.0587590
C           1.6623062    -0.0192793    -0.0101742
N           2.3872960     0.3071422     1.1227915
N           2.3642117    -0.3043153    -1.1677345
H          -0.0525924    -1.2111409    -1.8632338
H          -2.5541305    -1.1543344    -1.8578218
H          -3.8072165     0.0235240     0.0051561
H          -2.5246794     1.1771497     1.8639057
H          -0.0223400     1.1767593     1.8634022
H           3.4390046     0.3333389     1.1292007
H           1.8984657     0.4152882     2.0454200
H           3.4156776    -0.3207032    -1.1946082
H           1.8536266    -0.4462809    -2.0737179
}
set {
basis STO-3G
}
gradient('BLYP')
--------------------------------------------------------------------------

  Memory set to  46.566 GiB by Python driver.
gradient() will perform analytic gradient computation.

*** tstart() called on aaojha
*** at Fri May 14 10:16:44 2021

   => Loading Basis Set <=

    Name: STO-3G
    Role: ORBITAL
    Keyword: BASIS
    atoms 1-7   entry C          line    61 file /home/aaojha/anaconda3/envs/torsiondrive/share/psi4/basis/sto-3g.gbs 
    atoms 8-9   entry N          line    71 file /home/aaojha/anaconda3/envs/torsiondrive/share/psi4/basis/sto-3g.gbs 
    atoms 10-18 entry H          line    19 file /home/aaojha/anaconda3/envs/torsiondrive/share/psi4/basis/sto-3g.gbs 


         ---------------------------------------------------------
                                   SCF
               by Justin Turney, Rob Parrish, Andy Simmonett
                          and Daniel G. A. Smith
                              RKS Reference
                        1 Threads,  47683 MiB Core
         ---------------------------------------------------------

  ==> Geometry <==

    Molecular point group: c1
    Full point group: C1

    Geometry (in Angstrom), charge = 1, multiplicity = 1:

       Center              X                  Y                   Z               Mass       
    ------------   -----------------  -----------------  -----------------  -----------------
         C            0.185978270246    -0.020981025922     0.009332258914    12.000000000000
         C           -0.547245229754    -0.660984925922    -1.050507741086    12.000000000000
         C           -1.964007029754    -0.643882125922    -1.041555141086    12.000000000000
         C           -2.667648929754     0.015698674078     0.009518058914    12.000000000000
         C           -1.947894429754     0.660506774078     1.058666458914    12.000000000000
         C           -0.530977729754     0.645928074078     1.063733358914    12.000000000000
         C            1.693267170246    -0.014332125922    -0.005199841086    12.000000000000
         N            2.418256970246     0.312089374078     1.127765858914    14.003074004430
         N            2.395172670246    -0.299368125922    -1.162760141086    14.003074004430
         H           -0.021631429754    -1.206193725922    -1.858259441086     1.007825032230
         H           -2.523169529754    -1.149387225922    -1.852847441086     1.007825032230
         H           -3.776255529754     0.028471174078     0.010130458914     1.007825032230
         H           -2.493718429754     1.182096874078     1.868880058914     1.007825032230
         H            0.008620970246     1.181706474078     1.868376558914     1.007825032230
         H            3.469965570246     0.338286074078     1.134175058914     1.007825032230
         H            1.929426670246     0.420235374078     2.050394358914     1.007825032230
         H            3.446638570246    -0.315756025922    -1.189633841086     1.007825032230
         H            1.884587570246    -0.441333725922    -2.068743541086     1.007825032230

  Running in c1 symmetry.

  Rotational constants: A =      0.11660  B =      0.03807  C =      0.02900 [cm^-1]
  Rotational constants: A =   3495.70612  B =   1141.27524  C =    869.50441 [MHz]
  Nuclear repulsion =  406.299063694895892

  Charge       = 1
  Multiplicity = 1
  Electrons    = 64
  Nalpha       = 32
  Nbeta        = 32

  ==> Algorithm <==

  SCF Algorithm Type is DF.
  DIIS enabled.
  MOM disabled.
  Fractional occupation disabled.
  Guess Type is SAD.
  Energy threshold   = 1.00e-08
  Density threshold  = 1.00e-08
  Integral threshold = 0.00e+00

  ==> Primary Basis <==

  Basis Set: STO-3G
    Blend: STO-3G
    Number of shells: 36
    Number of basis function: 54
    Number of Cartesian functions: 54
    Spherical Harmonics?: true
    Max angular momentum: 1

  ==> DFT Potential <==

   => Composite Functional: BLYP <= 

    BLYP GGA Exchange-Correlation Functional

    P.J. Stephens et. al., J. Phys. Chem., 98, 11623-11627, 1994
    B. Miehlich et. al., Chem. Phys. Lett., 157(3), 200-206 1989


    Deriv               =              1
    GGA                 =           TRUE
    Meta                =          FALSE

    Exchange Hybrid     =          FALSE
    MP2 Hybrid          =          FALSE

   => Exchange Functionals <=

    1.0000     XC_GGA_X_B88

   => Correlation Functionals <=

    1.0000     XC_GGA_C_LYP

   => Molecular Quadrature <=

    Radial Scheme          =       TREUTLER
    Pruning Scheme         =           FLAT
    Nuclear Scheme         =       TREUTLER

    BS radius alpha        =              1
    Pruning alpha          =              1
    Radial Points          =             75
    Spherical Points       =            302
    Total Points           =         395088
    Total Blocks           =           2991
    Max Points             =            256
    Max Functions          =             51

   => Loading Basis Set <=

    Name: (STO-3G AUX)
    Role: JKFIT
    Keyword: DF_BASIS_SCF
    atoms 1-7   entry C          line   203 file /home/aaojha/anaconda3/envs/torsiondrive/share/psi4/basis/def2-svp-jkfit.gbs 
    atoms 8-9   entry N          line   263 file /home/aaojha/anaconda3/envs/torsiondrive/share/psi4/basis/def2-svp-jkfit.gbs 
    atoms 10-18 entry H          line    23 file /home/aaojha/anaconda3/envs/torsiondrive/share/psi4/basis/def2-svp-jkfit.gbs 

  ==> Pre-Iterations <==

   -------------------------------------------------------
    Irrep   Nso     Nmo     Nalpha   Nbeta   Ndocc  Nsocc
   -------------------------------------------------------
     A         54      54       0       0       0       0
   -------------------------------------------------------
    Total      54      54      32      32      32       0
   -------------------------------------------------------

  ==> Integral Setup <==

  DFHelper Memory: AOs need 0.024 GiB; user supplied 34.425 GiB. Using in-core AOs.

  ==> MemDFJK: Density-Fitted J/K Matrices <==

    J tasked:                   Yes
    K tasked:                    No
    wK tasked:                   No
    OpenMP threads:               1
    Memory [MiB]:             35250
    Algorithm:                 Core
    Schwarz Cutoff:           1E-12
    Mask sparsity (%):       1.9890
    Fitting Condition:        1E-10

   => Auxiliary Basis Set <=

  Basis Set: (STO-3G AUX)
    Blend: DEF2-SVP-JKFIT
    Number of shells: 279
    Number of basis function: 841
    Number of Cartesian functions: 989
    Spherical Harmonics?: true
    Max angular momentum: 4

  Cached 100.0% of DFT collocation blocks in 0.500 [GiB].

  Minimum eigenvalue in the overlap matrix is 1.8839904561E-01.
  Using Symmetric Orthogonalization.

  SCF Guess: Superposition of Atomic Densities via on-the-fly atomic UHF.

  ==> Iterations <==

                           Total Energy        Delta E     RMS |[F,P]|

   @DF-RKS iter SAD:  -373.14362757648166   -3.73144e+02   0.00000e+00 
   @DF-RKS iter   1:  -376.48701511070851   -3.34339e+00   5.06862e-03 DIIS
   @DF-RKS iter   2:  -376.34555004968058    1.41465e-01   9.85466e-03 DIIS
   @DF-RKS iter   3:  -376.53533101527785   -1.89781e-01   1.72813e-03 DIIS
   @DF-RKS iter   4:  -376.54058833721615   -5.25732e-03   6.88209e-04 DIIS
   @DF-RKS iter   5:  -376.54162294613889   -1.03461e-03   1.56324e-04 DIIS
   @DF-RKS iter   6:  -376.54167001490453   -4.70688e-05   4.70509e-05 DIIS
   @DF-RKS iter   7:  -376.54167360254678   -3.58764e-06   1.93335e-05 DIIS
   @DF-RKS iter   8:  -376.54167424486172   -6.42315e-07   7.90420e-06 DIIS
   @DF-RKS iter   9:  -376.54167437760270   -1.32741e-07   9.33968e-07 DIIS
   @DF-RKS iter  10:  -376.54167437844910   -8.46399e-10   6.01024e-07 DIIS
   @DF-RKS iter  11:  -376.54167437931289   -8.63793e-10   5.25987e-08 DIIS
   @DF-RKS iter  12:  -376.54167437931505   -2.16005e-12   4.35308e-08 DIIS
   @DF-RKS iter  13:  -376.54167437931903   -3.97904e-12   6.91591e-09 DIIS
  Energy and wave function converged.


  ==> Post-Iterations <==

    Orbital Energies [Eh]
    ---------------------

    Doubly Occupied:                                                      

       1A    -14.120497     2A    -14.120259     3A    -10.091642  
       4A     -9.954433     5A     -9.928084     6A     -9.928036  
       7A     -9.916247     8A     -9.913035     9A     -9.912849  
      10A     -1.041101    11A     -0.961453    12A     -0.882080  
      13A     -0.806073    14A     -0.782925    15A     -0.737860  
      16A     -0.677753    17A     -0.668262    18A     -0.634685  
      19A     -0.632595    20A     -0.592866    21A     -0.570806  
      22A     -0.538660    23A     -0.507190    24A     -0.493902  
      25A     -0.487853    26A     -0.483558    27A     -0.419735  
      28A     -0.417628    29A     -0.412043    30A     -0.361379  
      31A     -0.325425    32A     -0.320422  

    Virtual:                                                              

      33A     -0.189547    34A     -0.107100    35A     -0.087963  
      36A      0.010089    37A      0.028375    38A      0.044270  
      39A      0.062606    40A      0.104359    41A      0.124164  
      42A      0.154397    43A      0.184801    44A      0.190917  
      45A      0.215260    46A      0.228646    47A      0.259245  
      48A      0.273912    49A      0.345573    50A      0.351971  
      51A      0.358112    52A      0.371927    53A      0.491015  
      54A      0.532599  

    Final Occupation by Irrep:
              A 
    DOCC [    32 ]

  @DF-RKS Final Energy:  -376.54167437931903

   => Energetics <=

    Nuclear Repulsion Energy =            406.2990636948958922
    One-Electron Energy =               -1303.3924154187102431
    Two-Electron Energy =                 574.8441331560361505
    DFT Exchange-Correlation Energy =     -54.2924558115409113
    Empirical Dispersion Energy =           0.0000000000000000
    VV10 Nonlocal Energy =                  0.0000000000000000
    Total Energy =                       -376.5416743793190335

Computation Completed


Properties will be evaluated at   0.000000,   0.000000,   0.000000 [a0]

Properties computed using the SCF density matrix

  Nuclear Dipole Moment: [e a0]
     X:     1.7901      Y:     0.0357      Z:    -0.0351

  Electronic Dipole Moment: [e a0]
     X:     0.6923      Y:    -0.0506      Z:     0.0191

  Dipole Moment: [e a0]
     X:     2.4824      Y:    -0.0149      Z:    -0.0160     Total:     2.4825

  Dipole Moment: [D]
     X:     6.3097      Y:    -0.0378      Z:    -0.0406     Total:     6.3100


*** tstop() called on aaojha at Fri May 14 10:16:51 2021
Module time:
	user time   =       6.86 seconds =       0.11 minutes
	system time =       0.21 seconds =       0.00 minutes
	total time  =          7 seconds =       0.12 minutes
Total time:
	user time   =       6.86 seconds =       0.11 minutes
	system time =       0.21 seconds =       0.00 minutes
	total time  =          7 seconds =       0.12 minutes

*** tstart() called on aaojha
*** at Fri May 14 10:16:51 2021


         ------------------------------------------------------------
                                   SCF GRAD                          
                          Rob Parrish, Justin Turney,                
                       Andy Simmonett, and Alex Sokolov              
         ------------------------------------------------------------

  ==> Geometry <==

    Molecular point group: c1
    Full point group: C1

    Geometry (in Angstrom), charge = 1, multiplicity = 1:

       Center              X                  Y                   Z               Mass       
    ------------   -----------------  -----------------  -----------------  -----------------
         C            0.185978270246    -0.020981025922     0.009332258914    12.000000000000
         C           -0.547245229754    -0.660984925922    -1.050507741086    12.000000000000
         C           -1.964007029754    -0.643882125922    -1.041555141086    12.000000000000
         C           -2.667648929754     0.015698674078     0.009518058914    12.000000000000
         C           -1.947894429754     0.660506774078     1.058666458914    12.000000000000
         C           -0.530977729754     0.645928074078     1.063733358914    12.000000000000
         C            1.693267170246    -0.014332125922    -0.005199841086    12.000000000000
         N            2.418256970246     0.312089374078     1.127765858914    14.003074004430
         N            2.395172670246    -0.299368125922    -1.162760141086    14.003074004430
         H           -0.021631429754    -1.206193725922    -1.858259441086     1.007825032230
         H           -2.523169529754    -1.149387225922    -1.852847441086     1.007825032230
         H           -3.776255529754     0.028471174078     0.010130458914     1.007825032230
         H           -2.493718429754     1.182096874078     1.868880058914     1.007825032230
         H            0.008620970246     1.181706474078     1.868376558914     1.007825032230
         H            3.469965570246     0.338286074078     1.134175058914     1.007825032230
         H            1.929426670246     0.420235374078     2.050394358914     1.007825032230
         H            3.446638570246    -0.315756025922    -1.189633841086     1.007825032230
         H            1.884587570246    -0.441333725922    -2.068743541086     1.007825032230

  Nuclear repulsion =  406.299063694895892

  ==> Basis Set <==

  Basis Set: STO-3G
    Blend: STO-3G
    Number of shells: 36
    Number of basis function: 54
    Number of Cartesian functions: 54
    Spherical Harmonics?: true
    Max angular momentum: 1

  ==> DFJKGrad: Density-Fitted SCF Gradients <==

    Gradient:                    1
    J tasked:                  Yes
    K tasked:                   No
    wK tasked:                  No
    OpenMP threads:              1
    Integrals threads:           1
    Memory [MiB]:            35762
    Schwarz Cutoff:          0E+00
    Fitting Condition:       1E-10

   => Auxiliary Basis Set <=

  Basis Set: (STO-3G AUX)
    Blend: DEF2-SVP-JKFIT
    Number of shells: 279
    Number of basis function: 841
    Number of Cartesian functions: 989
    Spherical Harmonics?: true
    Max angular momentum: 4

  ==> DFT Potential <==

   => Composite Functional: BLYP <= 

    BLYP GGA Exchange-Correlation Functional

    P.J. Stephens et. al., J. Phys. Chem., 98, 11623-11627, 1994
    B. Miehlich et. al., Chem. Phys. Lett., 157(3), 200-206 1989


    Deriv               =              1
    GGA                 =           TRUE
    Meta                =          FALSE

    Exchange Hybrid     =          FALSE
    MP2 Hybrid          =          FALSE

   => Exchange Functionals <=

    1.0000     XC_GGA_X_B88

   => Correlation Functionals <=

    1.0000     XC_GGA_C_LYP

   => Molecular Quadrature <=

    Radial Scheme          =       TREUTLER
    Pruning Scheme         =           FLAT
    Nuclear Scheme         =       TREUTLER

    BS radius alpha        =              1
    Pruning alpha          =              1
    Radial Points          =             75
    Spherical Points       =            302
    Total Points           =         395088
    Total Blocks           =           2991
    Max Points             =            256
    Max Functions          =             51


  -Total Gradient:
     Atom            X                  Y                   Z
    ------   -----------------  -----------------  -----------------
       1       -0.000022516755    -0.001305839165     0.000763290946
       2        0.000035180549     0.001297561478    -0.000925048715
       3        0.000134341886     0.000084261504     0.000191178916
       4       -0.000197895114     0.000007723419    -0.000024197569
       5        0.000002460152     0.000001043816     0.000048693894
       6       -0.000035443654    -0.000023808193    -0.000122500588
       7       -0.000318665546    -0.001742365307     0.000551537756
       8        0.000542227244     0.001567487443    -0.000929694024
       9       -0.000146607630     0.000082374898    -0.000037153354
      10        0.000022907249     0.000017954965    -0.000025288539
      11        0.000004711568     0.000004989431     0.000022012691
      12       -0.000014559152     0.000017107430     0.000012503809
      13       -0.000015897793    -0.000007943528    -0.000003480872
      14       -0.000026492631    -0.000030274252     0.000006448727
      15        0.000021821414     0.000071322983     0.000392795237
      16        0.000024945016    -0.000002119078    -0.000069119936
      17        0.000007706211     0.000009128696     0.000156826771
      18       -0.000026195221    -0.000047172989    -0.000007770823


*** tstop() called on aaojha at Fri May 14 10:16:53 2021
Module time:
	user time   =       2.00 seconds =       0.03 minutes
	system time =       0.01 seconds =       0.00 minutes
	total time  =          2 seconds =       0.03 minutes
Total time:
	user time   =       8.86 seconds =       0.15 minutes
	system time =       0.22 seconds =       0.00 minutes
	total time  =          9 seconds =       0.15 minutes

    Psi4 stopped on: Friday, 14 May 2021 10:16AM
    Psi4 wall time for execution: 0:00:09.14

*** Psi4 exiting successfully. Buy a developer a beer!
