
    -----------------------------------------------------------------------
          Psi4: An Open-Source Ab Initio Electronic Structure Package
                               Psi4 1.3.2 release

                         Git: Rev {HEAD} ecbda83 


    R. M. Parrish, L. A. Burns, D. G. A. Smith, A. C. Simmonett,
    A. E. DePrince III, E. G. Hohenstein, U. Bozkaya, A. Yu. Sokolov,
    R. Di Remigio, R. M. Richard, J. F. Gonthier, A. M. James,
    H. R. McAlexander, A. Kumar, M. Saitow, X. Wang, B. P. Pritchard,
    P. Verma, H. F. Schaefer III, K. Patkowski, R. A. King, E. F. Valeev,
    F. A. Evangelista, J. M. Turney, T. D. Crawford, and C. D. Sherrill,
    J. Chem. Theory Comput. 13(7) pp 3185--3197 (2017).
    (doi: 10.1021/acs.jctc.7b00174)


                         Additional Contributions by
    P. Kraus, H. Kruse, M. H. Lechner, M. C. Schieber, R. A. Shaw,
    A. Alenaizan, R. Galvelis, Z. L. Glick, S. Lehtola, and J. P. Misiewicz

    -----------------------------------------------------------------------


    Psi4 started on: Friday, 14 May 2021 09:39AM

    Process ID: 3993
    Host:       aaojha
    PSIDATADIR: /home/aaojha/anaconda3/envs/torsiondrive/share/psi4
    Memory:     500.0 MiB
    Threads:    1
    
  ==> Input File <==

--------------------------------------------------------------------------
memory 50 GB
molecule {
1 1
C           0.1504632    -0.0004433    -0.0038238
C          -0.5559562    -1.0575361    -0.6573809
C          -1.9768093    -1.0462364    -0.6448254
C          -2.6811252     0.0042332     0.0098778
C          -1.9671109     1.0522663     0.6580176
C          -0.5462178     1.0588349     0.6567344
C           1.6817697    -0.0023095    -0.0113682
N           2.3725653    -0.6327003     0.9989495
N           2.3657508     0.6236567    -1.0291522
H          -0.0061253    -1.8732367    -1.1653615
H          -2.5330300    -1.8607551    -1.1482904
H          -3.7889558     0.0060373     0.0151979
H          -2.5157742     1.8685460     1.1669035
H           0.0112059     1.8722397     1.1600923
H           3.4261024    -0.6664832     1.0475615
H           1.8325404    -1.1067611     1.7686295
H           3.4188914     0.6543894    -1.0876513
H           1.8201684     1.0992668    -1.7939341
}
set {
basis STO-3G
}
gradient('BLYP')
--------------------------------------------------------------------------

  Memory set to  46.566 GiB by Python driver.
gradient() will perform analytic gradient computation.

*** tstart() called on aaojha
*** at Fri May 14 09:39:45 2021

   => Loading Basis Set <=

    Name: STO-3G
    Role: ORBITAL
    Keyword: BASIS
    atoms 1-7   entry C          line    61 file /home/aaojha/anaconda3/envs/torsiondrive/share/psi4/basis/sto-3g.gbs 
    atoms 8-9   entry N          line    71 file /home/aaojha/anaconda3/envs/torsiondrive/share/psi4/basis/sto-3g.gbs 
    atoms 10-18 entry H          line    19 file /home/aaojha/anaconda3/envs/torsiondrive/share/psi4/basis/sto-3g.gbs 


         ---------------------------------------------------------
                                   SCF
               by Justin Turney, Rob Parrish, Andy Simmonett
                          and Daniel G. A. Smith
                              RKS Reference
                        1 Threads,  47683 MiB Core
         ---------------------------------------------------------

  ==> Geometry <==

    Molecular point group: c1
    Full point group: C1

    Geometry (in Angstrom), charge = 1, multiplicity = 1:

       Center              X                  Y                   Z               Mass       
    ------------   -----------------  -----------------  -----------------  -----------------
         C            0.172852295275    -0.000214198926    -0.000740679906    12.000000000000
         C           -0.533567104725    -1.057306998926    -0.654297779906    12.000000000000
         C           -1.954420204725    -1.046007298926    -0.641742279906    12.000000000000
         C           -2.658736104725     0.004462301074     0.012960920094    12.000000000000
         C           -1.944721804725     1.052495401074     0.661100720094    12.000000000000
         C           -0.523828704725     1.059064001074     0.659817520094    12.000000000000
         C            1.704158795275    -0.002080398926    -0.008285079906    12.000000000000
         N            2.394954395275    -0.632471198926     1.002032620094    14.003074004430
         N            2.388139895275     0.623885801074    -1.026069079906    14.003074004430
         H            0.016263795275    -1.873007598926    -1.162278379906     1.007825032230
         H           -2.510640904725    -1.860525998926    -1.145207279906     1.007825032230
         H           -3.766566704725     0.006266401074     0.018281020094     1.007825032230
         H           -2.493385104725     1.868775101074     1.169986620094     1.007825032230
         H            0.033594995275     1.872468801074     1.163175420094     1.007825032230
         H            3.448491495275    -0.666254098926     1.050644620094     1.007825032230
         H            1.854929495275    -1.106531998926     1.771712620094     1.007825032230
         H            3.441280495275     0.654618501074    -1.084568179906     1.007825032230
         H            1.842557495275     1.099495901074    -1.790850979906     1.007825032230

  Running in c1 symmetry.

  Rotational constants: A =      0.11608  B =      0.03456  C =      0.03185 [cm^-1]
  Rotational constants: A =   3480.03870  B =   1036.12629  C =    954.93173 [MHz]
  Nuclear repulsion =  405.207599148571660

  Charge       = 1
  Multiplicity = 1
  Electrons    = 64
  Nalpha       = 32
  Nbeta        = 32

  ==> Algorithm <==

  SCF Algorithm Type is DF.
  DIIS enabled.
  MOM disabled.
  Fractional occupation disabled.
  Guess Type is SAD.
  Energy threshold   = 1.00e-08
  Density threshold  = 1.00e-08
  Integral threshold = 0.00e+00

  ==> Primary Basis <==

  Basis Set: STO-3G
    Blend: STO-3G
    Number of shells: 36
    Number of basis function: 54
    Number of Cartesian functions: 54
    Spherical Harmonics?: true
    Max angular momentum: 1

  ==> DFT Potential <==

   => Composite Functional: BLYP <= 

    BLYP GGA Exchange-Correlation Functional

    P.J. Stephens et. al., J. Phys. Chem., 98, 11623-11627, 1994
    B. Miehlich et. al., Chem. Phys. Lett., 157(3), 200-206 1989


    Deriv               =              1
    GGA                 =           TRUE
    Meta                =          FALSE

    Exchange Hybrid     =          FALSE
    MP2 Hybrid          =          FALSE

   => Exchange Functionals <=

    1.0000     XC_GGA_X_B88

   => Correlation Functionals <=

    1.0000     XC_GGA_C_LYP

   => Molecular Quadrature <=

    Radial Scheme          =       TREUTLER
    Pruning Scheme         =           FLAT
    Nuclear Scheme         =       TREUTLER

    BS radius alpha        =              1
    Pruning alpha          =              1
    Radial Points          =             75
    Spherical Points       =            302
    Total Points           =         395881
    Total Blocks           =           2955
    Max Points             =            256
    Max Functions          =             51

   => Loading Basis Set <=

    Name: (STO-3G AUX)
    Role: JKFIT
    Keyword: DF_BASIS_SCF
    atoms 1-7   entry C          line   203 file /home/aaojha/anaconda3/envs/torsiondrive/share/psi4/basis/def2-svp-jkfit.gbs 
    atoms 8-9   entry N          line   263 file /home/aaojha/anaconda3/envs/torsiondrive/share/psi4/basis/def2-svp-jkfit.gbs 
    atoms 10-18 entry H          line    23 file /home/aaojha/anaconda3/envs/torsiondrive/share/psi4/basis/def2-svp-jkfit.gbs 

  ==> Pre-Iterations <==

   -------------------------------------------------------
    Irrep   Nso     Nmo     Nalpha   Nbeta   Ndocc  Nsocc
   -------------------------------------------------------
     A         54      54       0       0       0       0
   -------------------------------------------------------
    Total      54      54      32      32      32       0
   -------------------------------------------------------

  ==> Integral Setup <==

  DFHelper Memory: AOs need 0.024 GiB; user supplied 34.424 GiB. Using in-core AOs.

  ==> MemDFJK: Density-Fitted J/K Matrices <==

    J tasked:                   Yes
    K tasked:                    No
    wK tasked:                   No
    OpenMP threads:               1
    Memory [MiB]:             35250
    Algorithm:                 Core
    Schwarz Cutoff:           1E-12
    Mask sparsity (%):       1.8519
    Fitting Condition:        1E-10

   => Auxiliary Basis Set <=

  Basis Set: (STO-3G AUX)
    Blend: DEF2-SVP-JKFIT
    Number of shells: 279
    Number of basis function: 841
    Number of Cartesian functions: 989
    Spherical Harmonics?: true
    Max angular momentum: 4

  Cached 100.0% of DFT collocation blocks in 0.501 [GiB].

  Minimum eigenvalue in the overlap matrix is 1.8747311398E-01.
  Using Symmetric Orthogonalization.

  SCF Guess: Superposition of Atomic Densities via on-the-fly atomic UHF.

  ==> Iterations <==

                           Total Energy        Delta E     RMS |[F,P]|

   @DF-RKS iter SAD:  -373.14377953605072   -3.73144e+02   0.00000e+00 
   @DF-RKS iter   1:  -376.47786413796439   -3.33408e+00   5.17690e-03 DIIS
   @DF-RKS iter   2:  -376.32432211595642    1.53542e-01   1.04306e-02 DIIS
   @DF-RKS iter   3:  -376.53053338863447   -2.06211e-01   1.43158e-03 DIIS
   @DF-RKS iter   4:  -376.53387087187309   -3.33748e-03   6.17783e-04 DIIS
   @DF-RKS iter   5:  -376.53467761234765   -8.06740e-04   1.69808e-04 DIIS
   @DF-RKS iter   6:  -376.53473607742171   -5.84651e-05   2.75908e-05 DIIS
   @DF-RKS iter   7:  -376.53473708427714   -1.00686e-06   1.70686e-05 DIIS
   @DF-RKS iter   8:  -376.53473760616396   -5.21887e-07   3.62607e-06 DIIS
   @DF-RKS iter   9:  -376.53473763281931   -2.66554e-08   6.45015e-07 DIIS
   @DF-RKS iter  10:  -376.53473763344005   -6.20730e-10   2.96037e-07 DIIS
   @DF-RKS iter  11:  -376.53473763360830   -1.68257e-10   4.12682e-08 DIIS
   @DF-RKS iter  12:  -376.53473763360523    3.06954e-12   5.69483e-08 DIIS
   @DF-RKS iter  13:  -376.53473763361160   -6.36646e-12   7.14442e-09 DIIS
  Energy and wave function converged.


  ==> Post-Iterations <==

    Orbital Energies [Eh]
    ---------------------

    Doubly Occupied:                                                      

       1A    -14.138330     2A    -14.138245     3A    -10.102625  
       4A     -9.938259     5A     -9.911953     6A     -9.911911  
       7A     -9.899050     8A     -9.898706     9A     -9.897390  
      10A     -1.053043    11A     -0.974657    12A     -0.871871  
      13A     -0.798736    14A     -0.769533    15A     -0.738049  
      16A     -0.681508    17A     -0.662389    18A     -0.645286  
      19A     -0.625312    20A     -0.601812    21A     -0.565972  
      22A     -0.522838    23A     -0.517226    24A     -0.477094  
      25A     -0.475342    26A     -0.469006    27A     -0.411906  
      28A     -0.404805    29A     -0.399445    30A     -0.376238  
      31A     -0.312778    32A     -0.307173  

    Virtual:                                                              

      33A     -0.183140    34A     -0.112677    35A     -0.094972  
      36A      0.005039    37A      0.022813    38A      0.041855  
      39A      0.058547    40A      0.110175    41A      0.111945  
      42A      0.169989    43A      0.193885    44A      0.200586  
      45A      0.242515    46A      0.247467    47A      0.253544  
      48A      0.281654    49A      0.352020    50A      0.357137  
      51A      0.364789    52A      0.369936    53A      0.502038  
      54A      0.547478  

    Final Occupation by Irrep:
              A 
    DOCC [    32 ]

  @DF-RKS Final Energy:  -376.53473763361160

   => Energetics <=

    Nuclear Repulsion Energy =            405.2075991485716600
    One-Electron Energy =               -1301.4816370661608289
    Two-Electron Energy =                 574.0306980355408086
    DFT Exchange-Correlation Energy =     -54.2913977515633377
    Empirical Dispersion Energy =           0.0000000000000000
    VV10 Nonlocal Energy =                  0.0000000000000000
    Total Energy =                       -376.5347376336116554

Computation Completed


Properties will be evaluated at   0.000000,   0.000000,   0.000000 [a0]

Properties computed using the SCF density matrix

  Nuclear Dipole Moment: [e a0]
     X:     1.7359      Y:    -0.0044      Z:    -0.0085

  Electronic Dipole Moment: [e a0]
     X:     1.2200      Y:    -0.0002      Z:    -0.0059

  Dipole Moment: [e a0]
     X:     2.9559      Y:    -0.0045      Z:    -0.0143     Total:     2.9559

  Dipole Moment: [D]
     X:     7.5131      Y:    -0.0115      Z:    -0.0365     Total:     7.5132


*** tstop() called on aaojha at Fri May 14 09:39:52 2021
Module time:
	user time   =       6.97 seconds =       0.12 minutes
	system time =       0.23 seconds =       0.00 minutes
	total time  =          7 seconds =       0.12 minutes
Total time:
	user time   =       6.97 seconds =       0.12 minutes
	system time =       0.23 seconds =       0.00 minutes
	total time  =          7 seconds =       0.12 minutes

*** tstart() called on aaojha
*** at Fri May 14 09:39:52 2021


         ------------------------------------------------------------
                                   SCF GRAD                          
                          Rob Parrish, Justin Turney,                
                       Andy Simmonett, and Alex Sokolov              
         ------------------------------------------------------------

  ==> Geometry <==

    Molecular point group: c1
    Full point group: C1

    Geometry (in Angstrom), charge = 1, multiplicity = 1:

       Center              X                  Y                   Z               Mass       
    ------------   -----------------  -----------------  -----------------  -----------------
         C            0.172852295275    -0.000214198926    -0.000740679906    12.000000000000
         C           -0.533567104725    -1.057306998926    -0.654297779906    12.000000000000
         C           -1.954420204725    -1.046007298926    -0.641742279906    12.000000000000
         C           -2.658736104725     0.004462301074     0.012960920094    12.000000000000
         C           -1.944721804725     1.052495401074     0.661100720094    12.000000000000
         C           -0.523828704725     1.059064001074     0.659817520094    12.000000000000
         C            1.704158795275    -0.002080398926    -0.008285079906    12.000000000000
         N            2.394954395275    -0.632471198926     1.002032620094    14.003074004430
         N            2.388139895275     0.623885801074    -1.026069079906    14.003074004430
         H            0.016263795275    -1.873007598926    -1.162278379906     1.007825032230
         H           -2.510640904725    -1.860525998926    -1.145207279906     1.007825032230
         H           -3.766566704725     0.006266401074     0.018281020094     1.007825032230
         H           -2.493385104725     1.868775101074     1.169986620094     1.007825032230
         H            0.033594995275     1.872468801074     1.163175420094     1.007825032230
         H            3.448491495275    -0.666254098926     1.050644620094     1.007825032230
         H            1.854929495275    -1.106531998926     1.771712620094     1.007825032230
         H            3.441280495275     0.654618501074    -1.084568179906     1.007825032230
         H            1.842557495275     1.099495901074    -1.790850979906     1.007825032230

  Nuclear repulsion =  405.207599148571660

  ==> Basis Set <==

  Basis Set: STO-3G
    Blend: STO-3G
    Number of shells: 36
    Number of basis function: 54
    Number of Cartesian functions: 54
    Spherical Harmonics?: true
    Max angular momentum: 1

  ==> DFJKGrad: Density-Fitted SCF Gradients <==

    Gradient:                    1
    J tasked:                  Yes
    K tasked:                   No
    wK tasked:                  No
    OpenMP threads:              1
    Integrals threads:           1
    Memory [MiB]:            35762
    Schwarz Cutoff:          0E+00
    Fitting Condition:       1E-10

   => Auxiliary Basis Set <=

  Basis Set: (STO-3G AUX)
    Blend: DEF2-SVP-JKFIT
    Number of shells: 279
    Number of basis function: 841
    Number of Cartesian functions: 989
    Spherical Harmonics?: true
    Max angular momentum: 4

  ==> DFT Potential <==

   => Composite Functional: BLYP <= 

    BLYP GGA Exchange-Correlation Functional

    P.J. Stephens et. al., J. Phys. Chem., 98, 11623-11627, 1994
    B. Miehlich et. al., Chem. Phys. Lett., 157(3), 200-206 1989


    Deriv               =              1
    GGA                 =           TRUE
    Meta                =          FALSE

    Exchange Hybrid     =          FALSE
    MP2 Hybrid          =          FALSE

   => Exchange Functionals <=

    1.0000     XC_GGA_X_B88

   => Correlation Functionals <=

    1.0000     XC_GGA_C_LYP

   => Molecular Quadrature <=

    Radial Scheme          =       TREUTLER
    Pruning Scheme         =           FLAT
    Nuclear Scheme         =       TREUTLER

    BS radius alpha        =              1
    Pruning alpha          =              1
    Radial Points          =             75
    Spherical Points       =            302
    Total Points           =         395881
    Total Blocks           =           2955
    Max Points             =            256
    Max Functions          =             51


  -Total Gradient:
     Atom            X                  Y                   Z
    ------   -----------------  -----------------  -----------------
       1       -0.000057226463    -0.000148460206     0.000020699167
       2        0.000070889005    -0.000188611019    -0.000133811339
       3        0.000150719318     0.000219201759     0.000143255350
       4       -0.000282916693    -0.000006115187    -0.000013723629
       5        0.000170786950    -0.000201066277    -0.000120431185
       6        0.000068318690     0.000215078681     0.000116024798
       7        0.000010228992     0.000252792300     0.000072611063
       8       -0.000173651215    -0.000162442607     0.000082885211
       9        0.000031250354     0.000031971470    -0.000138629938
      10        0.000013444792    -0.000034037827     0.000010373129
      11        0.000008432145     0.000023449925     0.000010269235
      12       -0.000028766333    -0.000000924040     0.000002793228
      13        0.000006099002    -0.000014919361    -0.000016195184
      14        0.000012227551     0.000006614305     0.000029686615
      15       -0.000035304817     0.000050661675    -0.000043760043
      16        0.000018339674    -0.000022942398    -0.000003240438
      17       -0.000019208070     0.000007084983    -0.000011958678
      18        0.000014159196    -0.000027033008    -0.000006988461


*** tstop() called on aaojha at Fri May 14 09:39:54 2021
Module time:
	user time   =       2.05 seconds =       0.03 minutes
	system time =       0.01 seconds =       0.00 minutes
	total time  =          2 seconds =       0.03 minutes
Total time:
	user time   =       9.02 seconds =       0.15 minutes
	system time =       0.24 seconds =       0.00 minutes
	total time  =          9 seconds =       0.15 minutes

    Psi4 stopped on: Friday, 14 May 2021 09:39AM
    Psi4 wall time for execution: 0:00:09.31

*** Psi4 exiting successfully. Buy a developer a beer!
