18   
Iteration 0 Energy -376.53473769
C        0.1511714000   -0.0010614000    0.0034014000
C       -0.5563556000   -1.0346896000    0.6924152000
C       -1.9771736000   -1.0227905000    0.6803185000
C       -2.6799502000    0.0057352000   -0.0099767000
C       -1.9657315000    1.0309234000   -0.6934389000
C       -0.5448001000    1.0358069000   -0.6923875000
C        1.6824865000   -0.0055789000    0.0101579000
N        2.3710498000   -0.6707815000   -0.9791986000
N        2.3687163000    0.6576757000    1.0024755000
H       -0.0071178000   -1.8326637000    1.2283926000
H       -2.5341291000   -1.8190990000    1.2113772000
H       -3.7877657000    0.0084266000   -0.0151872000
H       -2.5137964000    1.8299482000   -1.2296399000
H        0.0133579000    1.8314849000   -1.2225355000
H        3.4243503000   -0.7119169000   -1.0272899000
H        1.8285392000   -1.1728916000   -1.7290755000
H        3.4220465000    0.6882520000    1.0577090000
H        1.8253314000    1.1618375000    1.7503657000
18   
Iteration 1 Energy -376.53470734
C        0.1513559337   -0.0219751645   -0.0096152399
C       -0.5615245039   -1.0264377034    0.7159472751
C       -1.9822964752   -1.0035695651    0.7098567085
C       -2.6807142265    0.0117731848   -0.0039623071
C       -1.9610144749    1.0146490195   -0.7142462050
C       -0.5400622737    1.0082098237   -0.7196572279
C        1.6827607951   -0.0241352261    0.0103553321
N        2.3840051334   -0.6259743056   -1.0101117301
N        2.3576073192    0.6155101348    1.0255356493
H       -0.0161990094   -1.8121273641    1.2736126902
H       -2.5428279937   -1.7802398114    1.2656516397
H       -3.7884887871    0.0234698902   -0.0039454055
H       -2.5050331124    1.8063665555   -1.2651993029
H        0.0217555950    1.7891733589   -1.2675093757
H        3.4380843224   -0.6454461259   -1.0558820704
H        1.8521166284   -1.0976623988   -1.7869128562
H        3.4101444520    0.6620022760    1.0848651180
H        1.8047558420    1.0848588539    1.7889801333
18   
Iteration 2 Energy -376.53473983
C        0.1513895232   -0.0327386392   -0.0173472926
C       -0.5637245789   -1.0181878780    0.7316200270
C       -1.9844589219   -0.9898429631    0.7295399184
C       -2.6812197801    0.0156901535    0.0003826639
C       -1.9591265987    1.0033585940   -0.7285639732
C       -0.5382151552    0.9906090306   -0.7388968452
C        1.6829358552   -0.0327820561    0.0075602549
N        2.3922634970   -0.5948737985   -1.0297925082
N        2.3512414618    0.5850813791    1.0402195995
H       -0.0198821864   -1.7954437410    1.3023791998
H       -2.5462778834   -1.7538570731    1.3013379504
H       -3.7889273358    0.0324227809    0.0039988573
H       -2.5014391268    1.7890058923   -1.2897933410
H        0.0249840996    1.7609134842   -1.3002450756
H        3.4467284170   -0.6005310818   -1.0717052710
H        1.8677552931   -1.0476310326   -1.8227586276
H        3.4031549340    0.6383977733    1.1048204312
H        1.7926419220    1.0285650596    1.8148552836
18   
Iteration 3 Energy -376.53525944
C        0.1508353711   -0.0326666864   -0.0182887237
C       -0.5608663612   -0.9913313650    0.7682270494
C       -1.9814104507   -0.9654340243    0.7644730491
C       -2.6752984734    0.0155317118   -0.0002520175
C       -1.9574496142    0.9781680436   -0.7661617828
C       -0.5367950198    0.9636599421   -0.7791207380
C        1.6813415771   -0.0255006956    0.0084237658
N        2.3860433336   -0.5255477207   -1.0636274335
N        2.3485137272    0.5250525971    1.0799688329
H       -0.0153648010   -1.7486940097    1.3636809727
H       -2.5438326527   -1.7092874679    1.3617268017
H       -3.7829797784    0.0324188630    0.0036915131
H       -2.5013992999    1.7437946279   -1.3529563788
H        0.0267070928    1.7117752575   -1.3694968989
H        3.4396483981   -0.5273630499   -1.1197964422
H        1.8552778744   -0.9409030479   -1.8725789917
H        3.4010249756    0.5609846680    1.1453950470
H        1.7932740067    0.9154825483    1.8849617741
18   
Iteration 4 Energy -376.53565365
C        0.1548154073   -0.0068625924   -0.0049107346
C       -0.5570482948   -0.9627644362    0.7847048789
C       -1.9779677377   -0.9492598688    0.7731629375
C       -2.6880596066    0.0112597545   -0.0028018269
C       -1.9678258170    0.9628296465   -0.7802604107
C       -0.5467890043    0.9595332653   -0.7914567171
C        1.6847196486   -0.0045242343    0.0009883864
N        2.3847431152   -0.4999113241   -1.0762978043
N        2.3640464907    0.4911137694    1.0913277514
H       -0.0091995165   -1.7123449091    1.3877744251
H       -2.5333048163   -1.6935194195    1.3763697425
H       -3.7960375395    0.0178676716   -0.0021689451
H       -2.5143858098    1.7140829597   -1.3828645681
H        0.0094473515    1.6997673191   -1.3983587527
H        3.4387072850   -0.5079344822   -1.1240964311
H        1.8536866192   -0.9003238158   -1.8924795224
H        3.4159402114    0.4970672059    1.1725024362
H        1.8120602710    0.8640050606    1.9065575101
18   
Iteration 5 Energy -376.53578177
C        0.1517399763    0.0642108618    0.0381251272
C       -0.5415440108   -0.9016285839    0.8344660741
C       -1.9606254500   -0.9358406180    0.8011908490
C       -2.6642591037   -0.0100407028   -0.0222206516
C       -1.9752768772    0.9372821685   -0.8333159227
C       -0.5555680245    0.9636129600   -0.8219999514
C        1.6765523105    0.0514546803    0.0088157798
N        2.3371970176   -0.4374182603   -1.0966224040
N        2.3874511307    0.4157253323    1.1309791346
H        0.0204112197   -1.6239655022    1.4576377846
H       -2.5097884582   -1.6805760958    1.4098936892
H       -3.7716501731   -0.0343263468   -0.0399528593
H       -2.5361045228    1.6458707747   -1.4736626416
H       -0.0046515472    1.6852720435   -1.4556838049
H        3.3890499493   -0.4764014287   -1.1638851963
H        1.7784623060   -0.7802435427   -1.9201824906
H        3.4360178901    0.3310779647    1.2070186286
H        1.8639665620    0.7650118057    1.9747422155
18   
Iteration 6 Energy -376.53597579
C        0.1531349807    0.0562269574    0.0405558278
C       -0.5427236365   -0.9117737196    0.8321707747
C       -1.9621799287   -0.9342300662    0.7891389094
C       -2.6788187425   -0.0120601827   -0.0268270104
C       -1.9698787193    0.9328369438   -0.8234449705
C       -0.5500591691    0.9651390701   -0.8125156620
C        1.6779783526    0.0366300298    0.0170299857
N        2.3377711650   -0.4518288802   -1.0897465406
N        2.3893399535    0.4267535433    1.1308123019
H        0.0137221867   -1.6355648860    1.4588451651
H       -2.5115815070   -1.6805923592    1.3951941395
H       -3.7864692345   -0.0351109603   -0.0478486511
H       -2.5253580523    1.6467176618   -1.4621660267
H        0.0014154247    1.6947822187   -1.4367418329
H        3.3883576865   -0.4880103070   -1.1751127983
H        1.7722817407   -0.7831221963   -1.9133043511
H        3.4398010428    0.3545805411    1.1922808322
H        1.8715045788    0.7976142734    1.9689488557
18   
Iteration 7 Energy -376.53598365
C        0.1566253434    0.0413495128    0.0329276380
C       -0.5531520674   -0.9207311157    0.8192120736
C       -1.9734200224   -0.9401508665    0.7871752917
C       -2.6835002817   -0.0083005083   -0.0233515567
C       -1.9743886969    0.9413068052   -0.8143678810
C       -0.5540597373    0.9610654810   -0.8011543319
C        1.6834853610    0.0170776893    0.0145434151
N        2.3535327791   -0.4715244568   -1.0857862251
N        2.3919524475    0.4363247595    1.1193910589
H       -0.0000699532   -1.6475846580    1.4448433634
H       -2.5243324548   -1.6858874291    1.3928629828
H       -3.7912086984   -0.0248034006   -0.0416182802
H       -2.5269012646    1.6641639568   -1.4457446632
H       -0.0015227064    1.6971237493   -1.4164364299
H        3.4055745306   -0.4902799561   -1.1602126553
H        1.7985102476   -0.8038268102   -1.9162163435
H        3.4435240062    0.3940079860    1.1901199313
H        1.8646258876    0.8203607421    1.9454486598
18   
Iteration 8 Energy -376.53605010
C        0.1524237206    0.0500916274    0.0358604704
C       -0.5472947746   -0.9153849218    0.8274886518
C       -1.9670199781   -0.9371639008    0.7910262545
C       -2.6776492018   -0.0104020731   -0.0249075045
C       -1.9722498489    0.9378647076   -0.8208287881
C       -0.5523762175    0.9641741962   -0.8097718575
C        1.6780719233    0.0268556667    0.0142798180
N        2.3434341596   -0.4630069012   -1.0882137248
N        2.3887938532    0.4254588248    1.1251090008
H        0.0089974408   -1.6381590896    1.4552738513
H       -2.5176538443   -1.6819798470    1.3980185235
H       -3.7852790205   -0.0304677993   -0.0443669022
H       -2.5277786841    1.6551111887   -1.4558762720
H       -0.0001039287    1.6973210365   -1.4290407909
H        3.3955360476   -0.4828707481   -1.1614152562
H        1.7870690715   -0.7905911158   -1.9196800823
H        3.4399509250    0.3718109042    1.1937548312
H        1.8650116739    0.8018179722    1.9569520575
18   
Iteration 9 Energy -376.53605296
C        0.1536008382    0.0546167227    0.0392746280
C       -0.5470216420   -0.9103812687    0.8306721303
C       -1.9666397315   -0.9353989676    0.7917140530
C       -2.6783918238   -0.0122986652   -0.0273967857
C       -1.9731141677    0.9347930973   -0.8247485689
C       -0.5532330289    0.9627582430   -0.8109948991
C        1.6789898262    0.0319605674    0.0176868785
N        2.3413687892   -0.4586575257   -1.0865621417
N        2.3903101041    0.4208367779    1.1316656630
H        0.0092781819   -1.6311830962    1.4606792634
H       -2.5166006995   -1.6803036420    1.3992144764
H       -3.7859495162   -0.0347032115   -0.0487183370
H       -2.5285371421    1.6492064046   -1.4630830453
H       -0.0016133299    1.6947535204   -1.4321536499
H        3.3923960502   -0.4827384940   -1.1721968832
H        1.7784999778   -0.7785586701   -1.9165236602
H        3.4415778600    0.3605523069    1.1920386121
H        1.8715281951    0.7963837627    1.9670625676
18   
Iteration 10 Energy -376.53606110
C        0.1530387271    0.0523291197    0.0379437906
C       -0.5479034129   -0.9122510984    0.8296532121
C       -1.9675677163   -0.9359067813    0.7917745620
C       -2.6786987028   -0.0115414718   -0.0264415222
C       -1.9727431950    0.9356319243   -0.8231383596
C       -0.5528405702    0.9629325055   -0.8104189526
C        1.6785357339    0.0288506805    0.0170609825
N        2.3419864392   -0.4624084831   -1.0862431854
N        2.3895605961    0.4210880244    1.1300926615
H        0.0081870328   -1.6335110146    1.4593186585
H       -2.5179047727   -1.6805064882    1.3993108709
H       -3.7862910635   -0.0327336390   -0.0472343729
H       -2.5279743310    1.6511502860   -1.4603861625
H       -0.0009324013    1.6955560238   -1.4306004067
H        3.3934632930   -0.4812529761   -1.1679560110
H        1.7818776724   -0.7808270125   -1.9187057854
H        3.4409181590    0.3663585221    1.1941760657
H        1.8683930138    0.7993307176    1.9627411535
18   
Iteration 11 Energy -376.53606263
C        0.1522548312    0.0511185203    0.0378473007
C       -0.5484684637   -0.9129671744    0.8303741560
C       -1.9681313270   -0.9352610804    0.7922401926
C       -2.6790807882   -0.0107505546   -0.0260369769
C       -1.9733685435    0.9362258254   -0.8231449021
C       -0.5534527094    0.9622649414   -0.8101050289
C        1.6777822138    0.0274434439    0.0169363913
N        2.3429926604   -0.4642930426   -1.0851262104
N        2.3880494108    0.4194495159    1.1304627977
H        0.0073672091   -1.6342895545    1.4602113533
H       -2.5189370176   -1.6793194423    1.4000057596
H       -3.7866853268   -0.0315623919   -0.0464499922
H       -2.5283087502    1.6520125359   -1.4603586913
H       -0.0011671286    1.6946720176   -1.4301999151
H        3.3946811803   -0.4783093023   -1.1656167274
H        1.7847409211   -0.7796239922   -1.9200564958
H        3.4395711003    0.3675891041    1.1942900470
H        1.8663681311    0.7992866724    1.9620656829
18   
Iteration 12 Energy -376.53606301
C        0.1516874952    0.0513273719    0.0377708900
C       -0.5499529343   -0.9117404933    0.8308628285
C       -1.9696070489   -0.9350615846    0.7935869975
C       -2.6797260586   -0.0108145536   -0.0256676031
C       -1.9731029570    0.9352071216   -0.8231646435
C       -0.5531869259    0.9622249302   -0.8110535178
C        1.6771753149    0.0272717313    0.0180018495
N        2.3426379397   -0.4659589706   -1.0833289063
N        2.3867786513    0.4166819253    1.1329155371
H        0.0060052209   -1.6325512120    1.4611537398
H       -2.5203562652   -1.6786827024    1.4019649396
H       -3.7873351357   -0.0311247306   -0.0464750263
H       -2.5280903861    1.6505336200   -1.4608292768
H       -0.0010579373    1.6942945362   -1.4317138228
H        3.3943123870   -0.4755549746   -1.1650612043
H        1.7847572783   -0.7755563091   -1.9206972161
H        3.4384113536    0.3670990419    1.1967248759
H        1.8647552042    0.7985013110    1.9633894368
