
    -----------------------------------------------------------------------
          Psi4: An Open-Source Ab Initio Electronic Structure Package
                               Psi4 1.3.2 release

                         Git: Rev {HEAD} ecbda83 


    R. M. Parrish, L. A. Burns, D. G. A. Smith, A. C. Simmonett,
    A. E. DePrince III, E. G. Hohenstein, U. Bozkaya, A. Yu. Sokolov,
    R. Di Remigio, R. M. Richard, J. F. Gonthier, A. M. James,
    H. R. McAlexander, A. Kumar, M. Saitow, X. Wang, B. P. Pritchard,
    P. Verma, H. F. Schaefer III, K. Patkowski, R. A. King, E. F. Valeev,
    F. A. Evangelista, J. M. Turney, T. D. Crawford, and C. D. Sherrill,
    J. Chem. Theory Comput. 13(7) pp 3185--3197 (2017).
    (doi: 10.1021/acs.jctc.7b00174)


                         Additional Contributions by
    P. Kraus, H. Kruse, M. H. Lechner, M. C. Schieber, R. A. Shaw,
    A. Alenaizan, R. Galvelis, Z. L. Glick, S. Lehtola, and J. P. Misiewicz

    -----------------------------------------------------------------------


    Psi4 started on: Friday, 14 May 2021 09:52AM

    Process ID: 10032
    Host:       aaojha
    PSIDATADIR: /home/aaojha/anaconda3/envs/torsiondrive/share/psi4
    Memory:     500.0 MiB
    Threads:    1
    
  ==> Input File <==

--------------------------------------------------------------------------
memory 50 GB
molecule {
1 1
C           0.1529891     0.0034258    -0.0109341
C          -0.5718456    -0.7335336    -1.0097175
C          -1.9891598    -0.7340235    -0.9896408
C          -2.6922260     0.0006659     0.0107705
C          -1.9765297     0.7361464     1.0016283
C          -0.5591128     0.7360847     1.0001189
C           1.6599718    -0.0025734    -0.0167808
N           2.3707013     0.1281835     1.1616706
N           2.3586906    -0.1480541    -1.2007645
H          -0.0337436    -1.3332438    -1.7693838
H          -2.5485445    -1.3129715    -1.7501521
H          -3.8007798    -0.0003224     0.0186179
H          -2.5254733     1.3134338     1.7709751
H          -0.0106554     1.3357034     1.7524364
H           3.4220832     0.1687448     1.1842718
H           1.8620079     0.1339231     2.0806735
H           3.4091602    -0.2018390    -1.2353557
H           1.8413633    -0.1443219    -2.1149466
}
set {
basis STO-3G
}
gradient('BLYP')
--------------------------------------------------------------------------

  Memory set to  46.566 GiB by Python driver.
gradient() will perform analytic gradient computation.

*** tstart() called on aaojha
*** at Fri May 14 09:52:36 2021

   => Loading Basis Set <=

    Name: STO-3G
    Role: ORBITAL
    Keyword: BASIS
    atoms 1-7   entry C          line    61 file /home/aaojha/anaconda3/envs/torsiondrive/share/psi4/basis/sto-3g.gbs 
    atoms 8-9   entry N          line    71 file /home/aaojha/anaconda3/envs/torsiondrive/share/psi4/basis/sto-3g.gbs 
    atoms 10-18 entry H          line    19 file /home/aaojha/anaconda3/envs/torsiondrive/share/psi4/basis/sto-3g.gbs 


         ---------------------------------------------------------
                                   SCF
               by Justin Turney, Rob Parrish, Andy Simmonett
                          and Daniel G. A. Smith
                              RKS Reference
                        1 Threads,  47683 MiB Core
         ---------------------------------------------------------

  ==> Geometry <==

    Molecular point group: c1
    Full point group: C1

    Geometry (in Angstrom), charge = 1, multiplicity = 1:

       Center              X                  Y                   Z               Mass       
    ------------   -----------------  -----------------  -----------------  -----------------
         C            0.184843920675     0.005450596115    -0.004446831965    12.000000000000
         C           -0.539990779325    -0.731508803885    -1.003230231965    12.000000000000
         C           -1.957304979325    -0.731998703885    -0.983153531965    12.000000000000
         C           -2.660371179325     0.002690696115     0.017257768035    12.000000000000
         C           -1.944674879325     0.738171196115     1.008115568035    12.000000000000
         C           -0.527257979325     0.738109496115     1.006606168035    12.000000000000
         C            1.691826620675    -0.000548603885    -0.010293531965    12.000000000000
         N            2.402556120675     0.130208296115     1.168157868035    14.003074004430
         N            2.390545420675    -0.146029303885    -1.194277231965    14.003074004430
         H           -0.001888779325    -1.331219003885    -1.762896531965     1.007825032230
         H           -2.516689679325    -1.310946703885    -1.743664831965     1.007825032230
         H           -3.768924979325     0.001702396115     0.025105168035     1.007825032230
         H           -2.493618479325     1.315458596115     1.777462368035     1.007825032230
         H            0.021199420675     1.337728196115     1.758923668035     1.007825032230
         H            3.453938020675     0.170769596115     1.190759068035     1.007825032230
         H            1.893862720675     0.135947896115     2.087160768035     1.007825032230
         H            3.441015020675    -0.199814203885    -1.228868431965     1.007825032230
         H            1.873218120675    -0.142297103885    -2.108459331965     1.007825032230

  Running in c1 symmetry.

  Rotational constants: A =      0.11621  B =      0.03782  C =      0.02942 [cm^-1]
  Rotational constants: A =   3483.87232  B =   1133.72026  C =    882.09879 [MHz]
  Nuclear repulsion =  406.399523533733657

  Charge       = 1
  Multiplicity = 1
  Electrons    = 64
  Nalpha       = 32
  Nbeta        = 32

  ==> Algorithm <==

  SCF Algorithm Type is DF.
  DIIS enabled.
  MOM disabled.
  Fractional occupation disabled.
  Guess Type is SAD.
  Energy threshold   = 1.00e-08
  Density threshold  = 1.00e-08
  Integral threshold = 0.00e+00

  ==> Primary Basis <==

  Basis Set: STO-3G
    Blend: STO-3G
    Number of shells: 36
    Number of basis function: 54
    Number of Cartesian functions: 54
    Spherical Harmonics?: true
    Max angular momentum: 1

  ==> DFT Potential <==

   => Composite Functional: BLYP <= 

    BLYP GGA Exchange-Correlation Functional

    P.J. Stephens et. al., J. Phys. Chem., 98, 11623-11627, 1994
    B. Miehlich et. al., Chem. Phys. Lett., 157(3), 200-206 1989


    Deriv               =              1
    GGA                 =           TRUE
    Meta                =          FALSE

    Exchange Hybrid     =          FALSE
    MP2 Hybrid          =          FALSE

   => Exchange Functionals <=

    1.0000     XC_GGA_X_B88

   => Correlation Functionals <=

    1.0000     XC_GGA_C_LYP

   => Molecular Quadrature <=

    Radial Scheme          =       TREUTLER
    Pruning Scheme         =           FLAT
    Nuclear Scheme         =       TREUTLER

    BS radius alpha        =              1
    Pruning alpha          =              1
    Radial Points          =             75
    Spherical Points       =            302
    Total Points           =         395275
    Total Blocks           =           2990
    Max Points             =            256
    Max Functions          =             51

   => Loading Basis Set <=

    Name: (STO-3G AUX)
    Role: JKFIT
    Keyword: DF_BASIS_SCF
    atoms 1-7   entry C          line   203 file /home/aaojha/anaconda3/envs/torsiondrive/share/psi4/basis/def2-svp-jkfit.gbs 
    atoms 8-9   entry N          line   263 file /home/aaojha/anaconda3/envs/torsiondrive/share/psi4/basis/def2-svp-jkfit.gbs 
    atoms 10-18 entry H          line    23 file /home/aaojha/anaconda3/envs/torsiondrive/share/psi4/basis/def2-svp-jkfit.gbs 

  ==> Pre-Iterations <==

   -------------------------------------------------------
    Irrep   Nso     Nmo     Nalpha   Nbeta   Ndocc  Nsocc
   -------------------------------------------------------
     A         54      54       0       0       0       0
   -------------------------------------------------------
    Total      54      54      32      32      32       0
   -------------------------------------------------------

  ==> Integral Setup <==

  DFHelper Memory: AOs need 0.024 GiB; user supplied 34.424 GiB. Using in-core AOs.

  ==> MemDFJK: Density-Fitted J/K Matrices <==

    J tasked:                   Yes
    K tasked:                    No
    wK tasked:                   No
    OpenMP threads:               1
    Memory [MiB]:             35250
    Algorithm:                 Core
    Schwarz Cutoff:           1E-12
    Mask sparsity (%):       1.9890
    Fitting Condition:        1E-10

   => Auxiliary Basis Set <=

  Basis Set: (STO-3G AUX)
    Blend: DEF2-SVP-JKFIT
    Number of shells: 279
    Number of basis function: 841
    Number of Cartesian functions: 989
    Spherical Harmonics?: true
    Max angular momentum: 4

  Cached 100.0% of DFT collocation blocks in 0.501 [GiB].

  Minimum eigenvalue in the overlap matrix is 1.8829730115E-01.
  Using Symmetric Orthogonalization.

  SCF Guess: Superposition of Atomic Densities via on-the-fly atomic UHF.

  ==> Iterations <==

                           Total Energy        Delta E     RMS |[F,P]|

   @DF-RKS iter SAD:  -373.14496014627491   -3.73145e+02   0.00000e+00 
   @DF-RKS iter   1:  -376.48744598994074   -3.34249e+00   5.06384e-03 DIIS
   @DF-RKS iter   2:  -376.34644890183449    1.40997e-01   9.85369e-03 DIIS
   @DF-RKS iter   3:  -376.53612176004549   -1.89673e-01   1.68606e-03 DIIS
   @DF-RKS iter   4:  -376.54108713754613   -4.96538e-03   6.85370e-04 DIIS
   @DF-RKS iter   5:  -376.54210517084732   -1.01803e-03   1.56551e-04 DIIS
   @DF-RKS iter   6:  -376.54215285640043   -4.76856e-05   4.33205e-05 DIIS
   @DF-RKS iter   7:  -376.54215621012349   -3.35372e-06   1.19644e-05 DIIS
   @DF-RKS iter   8:  -376.54215647191995   -2.61796e-07   4.15995e-06 DIIS
   @DF-RKS iter   9:  -376.54215650852348   -3.66035e-08   7.46507e-07 DIIS
   @DF-RKS iter  10:  -376.54215650879325   -2.69779e-10   6.69374e-07 DIIS
   @DF-RKS iter  11:  -376.54215650972765   -9.34392e-10   7.39765e-08 DIIS
   @DF-RKS iter  12:  -376.54215650973526   -7.61702e-12   4.28391e-08 DIIS
   @DF-RKS iter  13:  -376.54215650973902   -3.75167e-12   7.87655e-09 DIIS
  Energy and wave function converged.


  ==> Post-Iterations <==

    Orbital Energies [Eh]
    ---------------------

    Doubly Occupied:                                                      

       1A    -14.122432     2A    -14.122298     3A    -10.091998  
       4A     -9.951336     5A     -9.925194     6A     -9.925091  
       7A     -9.913740     8A     -9.911015     9A     -9.910800  
      10A     -1.042033    11A     -0.963045    12A     -0.880574  
      13A     -0.804920    14A     -0.780917    15A     -0.736873  
      16A     -0.677785    17A     -0.666748    18A     -0.635166  
      19A     -0.632139    20A     -0.593794    21A     -0.570289  
      22A     -0.535756    23A     -0.510635    24A     -0.488768  
      25A     -0.485996    26A     -0.480160    27A     -0.417368  
      28A     -0.417186    29A     -0.410227    30A     -0.363021  
      31A     -0.323928    32A     -0.318729  

    Virtual:                                                              

      33A     -0.187127    34A     -0.105632    35A     -0.092645  
      36A      0.012265    37A      0.025328    38A      0.049342  
      39A      0.060785    40A      0.111774    41A      0.123054  
      42A      0.157891    43A      0.187415    44A      0.187747  
      45A      0.218036    46A      0.230026    47A      0.258522  
      48A      0.276136    49A      0.347196    50A      0.350332  
      51A      0.356699    52A      0.372390    53A      0.492161  
      54A      0.534453  

    Final Occupation by Irrep:
              A 
    DOCC [    32 ]

  @DF-RKS Final Energy:  -376.54215650973902

   => Energetics <=

    Nuclear Repulsion Energy =            406.3995235337336567
    One-Electron Energy =               -1303.6561367881449769
    Two-Electron Energy =                 575.0081955926673345
    DFT Exchange-Correlation Energy =     -54.2937388479949874
    Empirical Dispersion Energy =           0.0000000000000000
    VV10 Nonlocal Energy =                  0.0000000000000000
    Total Energy =                       -376.5421565097390157

Computation Completed


Properties will be evaluated at   0.000000,   0.000000,   0.000000 [a0]

Properties computed using the SCF density matrix

  Nuclear Dipole Moment: [e a0]
     X:     1.7692      Y:    -0.0212      Z:    -0.0041

  Electronic Dipole Moment: [e a0]
     X:     0.7662      Y:     0.0135      Z:    -0.0088

  Dipole Moment: [e a0]
     X:     2.5355      Y:    -0.0077      Z:    -0.0129     Total:     2.5355

  Dipole Moment: [D]
     X:     6.4445      Y:    -0.0195      Z:    -0.0327     Total:     6.4446


*** tstop() called on aaojha at Fri May 14 09:52:43 2021
Module time:
	user time   =       6.88 seconds =       0.11 minutes
	system time =       0.17 seconds =       0.00 minutes
	total time  =          7 seconds =       0.12 minutes
Total time:
	user time   =       6.88 seconds =       0.11 minutes
	system time =       0.17 seconds =       0.00 minutes
	total time  =          7 seconds =       0.12 minutes

*** tstart() called on aaojha
*** at Fri May 14 09:52:43 2021


         ------------------------------------------------------------
                                   SCF GRAD                          
                          Rob Parrish, Justin Turney,                
                       Andy Simmonett, and Alex Sokolov              
         ------------------------------------------------------------

  ==> Geometry <==

    Molecular point group: c1
    Full point group: C1

    Geometry (in Angstrom), charge = 1, multiplicity = 1:

       Center              X                  Y                   Z               Mass       
    ------------   -----------------  -----------------  -----------------  -----------------
         C            0.184843920675     0.005450596115    -0.004446831965    12.000000000000
         C           -0.539990779325    -0.731508803885    -1.003230231965    12.000000000000
         C           -1.957304979325    -0.731998703885    -0.983153531965    12.000000000000
         C           -2.660371179325     0.002690696115     0.017257768035    12.000000000000
         C           -1.944674879325     0.738171196115     1.008115568035    12.000000000000
         C           -0.527257979325     0.738109496115     1.006606168035    12.000000000000
         C            1.691826620675    -0.000548603885    -0.010293531965    12.000000000000
         N            2.402556120675     0.130208296115     1.168157868035    14.003074004430
         N            2.390545420675    -0.146029303885    -1.194277231965    14.003074004430
         H           -0.001888779325    -1.331219003885    -1.762896531965     1.007825032230
         H           -2.516689679325    -1.310946703885    -1.743664831965     1.007825032230
         H           -3.768924979325     0.001702396115     0.025105168035     1.007825032230
         H           -2.493618479325     1.315458596115     1.777462368035     1.007825032230
         H            0.021199420675     1.337728196115     1.758923668035     1.007825032230
         H            3.453938020675     0.170769596115     1.190759068035     1.007825032230
         H            1.893862720675     0.135947896115     2.087160768035     1.007825032230
         H            3.441015020675    -0.199814203885    -1.228868431965     1.007825032230
         H            1.873218120675    -0.142297103885    -2.108459331965     1.007825032230

  Nuclear repulsion =  406.399523533733657

  ==> Basis Set <==

  Basis Set: STO-3G
    Blend: STO-3G
    Number of shells: 36
    Number of basis function: 54
    Number of Cartesian functions: 54
    Spherical Harmonics?: true
    Max angular momentum: 1

  ==> DFJKGrad: Density-Fitted SCF Gradients <==

    Gradient:                    1
    J tasked:                  Yes
    K tasked:                   No
    wK tasked:                  No
    OpenMP threads:              1
    Integrals threads:           1
    Memory [MiB]:            35762
    Schwarz Cutoff:          0E+00
    Fitting Condition:       1E-10

   => Auxiliary Basis Set <=

  Basis Set: (STO-3G AUX)
    Blend: DEF2-SVP-JKFIT
    Number of shells: 279
    Number of basis function: 841
    Number of Cartesian functions: 989
    Spherical Harmonics?: true
    Max angular momentum: 4

  ==> DFT Potential <==

   => Composite Functional: BLYP <= 

    BLYP GGA Exchange-Correlation Functional

    P.J. Stephens et. al., J. Phys. Chem., 98, 11623-11627, 1994
    B. Miehlich et. al., Chem. Phys. Lett., 157(3), 200-206 1989


    Deriv               =              1
    GGA                 =           TRUE
    Meta                =          FALSE

    Exchange Hybrid     =          FALSE
    MP2 Hybrid          =          FALSE

   => Exchange Functionals <=

    1.0000     XC_GGA_X_B88

   => Correlation Functionals <=

    1.0000     XC_GGA_C_LYP

   => Molecular Quadrature <=

    Radial Scheme          =       TREUTLER
    Pruning Scheme         =           FLAT
    Nuclear Scheme         =       TREUTLER

    BS radius alpha        =              1
    Pruning alpha          =              1
    Radial Points          =             75
    Spherical Points       =            302
    Total Points           =         395275
    Total Blocks           =           2990
    Max Points             =            256
    Max Functions          =             51


  -Total Gradient:
     Atom            X                  Y                   Z
    ------   -----------------  -----------------  -----------------
       1        0.000075552063     0.000349346673    -0.000435673732
       2       -0.000022647057    -0.000417516151     0.000095801537
       3        0.000025585448     0.000060527357     0.000056439907
       4        0.000266176830    -0.000026061040    -0.000035051573
       5       -0.000160261610     0.000205583349     0.000285448661
       6       -0.000264242292    -0.000228584898    -0.000141490968
       7        0.000081034274     0.000465031915     0.000088269062
       8       -0.000008473608    -0.000432791171     0.000161693596
       9        0.000089580918     0.000055445113     0.000185897410
      10       -0.000020847878    -0.000011216839    -0.000019172033
      11        0.000022226054    -0.000002321797    -0.000010943370
      12        0.000019283463     0.000015667040     0.000027754326
      13       -0.000020578949     0.000010320835     0.000021311002
      14       -0.000081501361     0.000036207200    -0.000012720601
      15        0.000003351830    -0.000018143088    -0.000257093634
      16        0.000002945113    -0.000001037421    -0.000012147713
      17       -0.000001538745    -0.000033024985    -0.000027127169
      18        0.000009041655    -0.000026418295     0.000028980178


*** tstop() called on aaojha at Fri May 14 09:52:45 2021
Module time:
	user time   =       2.00 seconds =       0.03 minutes
	system time =       0.00 seconds =       0.00 minutes
	total time  =          2 seconds =       0.03 minutes
Total time:
	user time   =       8.88 seconds =       0.15 minutes
	system time =       0.17 seconds =       0.00 minutes
	total time  =          9 seconds =       0.15 minutes

    Psi4 stopped on: Friday, 14 May 2021 09:52AM
    Psi4 wall time for execution: 0:00:09.10

*** Psi4 exiting successfully. Buy a developer a beer!
