
    -----------------------------------------------------------------------
          Psi4: An Open-Source Ab Initio Electronic Structure Package
                               Psi4 1.3.2 release

                         Git: Rev {HEAD} ecbda83 


    R. M. Parrish, L. A. Burns, D. G. A. Smith, A. C. Simmonett,
    A. E. DePrince III, E. G. Hohenstein, U. Bozkaya, A. Yu. Sokolov,
    R. Di Remigio, R. M. Richard, J. F. Gonthier, A. M. James,
    H. R. McAlexander, A. Kumar, M. Saitow, X. Wang, B. P. Pritchard,
    P. Verma, H. F. Schaefer III, K. Patkowski, R. A. King, E. F. Valeev,
    F. A. Evangelista, J. M. Turney, T. D. Crawford, and C. D. Sherrill,
    J. Chem. Theory Comput. 13(7) pp 3185--3197 (2017).
    (doi: 10.1021/acs.jctc.7b00174)


                         Additional Contributions by
    P. Kraus, H. Kruse, M. H. Lechner, M. C. Schieber, R. A. Shaw,
    A. Alenaizan, R. Galvelis, Z. L. Glick, S. Lehtola, and J. P. Misiewicz

    -----------------------------------------------------------------------


    Psi4 started on: Friday, 14 May 2021 09:16AM

    Process ID: 31318
    Host:       aaojha
    PSIDATADIR: /home/aaojha/anaconda3/envs/torsiondrive/share/psi4
    Memory:     500.0 MiB
    Threads:    1
    
  ==> Input File <==

--------------------------------------------------------------------------
memory 50 GB
molecule {
1 1
C           0.1600580    -0.0128680     0.0268792
C          -0.5576122    -1.2138830    -0.2942703
C          -1.9757235    -1.1960508    -0.3094875
C          -2.6796117     0.0060878    -0.0040413
C          -1.9658688     1.2012851     0.3070247
C          -0.5477238     1.2037411     0.3087776
C           1.6696722    -0.0126753    -0.0053586
N           2.3788140    -1.0521067     0.5642134
N           2.3545655     1.0547989    -0.5518316
H          -0.0107473    -2.1408546    -0.5555147
H          -2.5337483    -2.1174272    -0.5666527
H          -3.7880092     0.0127057    -0.0119603
H          -2.5168786     2.1312521     0.5479611
H           0.0059837     2.1269965     0.5685291
H           3.4279399    -1.1256066     0.5088419
H           1.8583864    -1.8337074     1.0368869
H           3.4048692     1.1285112    -0.5333299
H           1.8190909     1.8182216    -1.0370354
}
set {
basis STO-3G
}
gradient('BLYP')
--------------------------------------------------------------------------

  Memory set to  46.566 GiB by Python driver.
gradient() will perform analytic gradient computation.

*** tstart() called on aaojha
*** at Fri May 14 09:16:50 2021

   => Loading Basis Set <=

    Name: STO-3G
    Role: ORBITAL
    Keyword: BASIS
    atoms 1-7   entry C          line    61 file /home/aaojha/anaconda3/envs/torsiondrive/share/psi4/basis/sto-3g.gbs 
    atoms 8-9   entry N          line    71 file /home/aaojha/anaconda3/envs/torsiondrive/share/psi4/basis/sto-3g.gbs 
    atoms 10-18 entry H          line    19 file /home/aaojha/anaconda3/envs/torsiondrive/share/psi4/basis/sto-3g.gbs 


         ---------------------------------------------------------
                                   SCF
               by Justin Turney, Rob Parrish, Andy Simmonett
                          and Daniel G. A. Smith
                              RKS Reference
                        1 Threads,  47683 MiB Core
         ---------------------------------------------------------

  ==> Geometry <==

    Molecular point group: c1
    Full point group: C1

    Geometry (in Angstrom), charge = 1, multiplicity = 1:

       Center              X                  Y                   Z               Mass       
    ------------   -----------------  -----------------  -----------------  -----------------
         C            0.183183233495    -0.010765478407     0.022872941373    12.000000000000
         C           -0.534486966505    -1.211780478407    -0.298276558627    12.000000000000
         C           -1.952598266505    -1.193948278407    -0.313493758627    12.000000000000
         C           -2.656486466505     0.008190321593    -0.008047558627    12.000000000000
         C           -1.942743566505     1.203387621593     0.303018441373    12.000000000000
         C           -0.524598566505     1.205843621593     0.304771341373    12.000000000000
         C            1.692797433495    -0.010572778407    -0.009364858627    12.000000000000
         N            2.401939233495    -1.050004178407     0.560207141373    14.003074004430
         N            2.377690733495     1.056901421593    -0.555837858627    14.003074004430
         H            0.012377933495    -2.138752078407    -0.559520958627     1.007825032230
         H           -2.510623066505    -2.115324678407    -0.570658958627     1.007825032230
         H           -3.764883966505     0.014808221593    -0.015966558627     1.007825032230
         H           -2.493753366505     2.133354621593     0.543954841373     1.007825032230
         H            0.029108933495     2.129099021593     0.564522841373     1.007825032230
         H            3.451065133495    -1.123504078407     0.504835641373     1.007825032230
         H            1.881511633495    -1.831604878407     1.032880641373     1.007825032230
         H            3.427994433495     1.130613721593    -0.537336158627     1.007825032230
         H            1.842216133495     1.820324121593    -1.041041658627     1.007825032230

  Running in c1 symmetry.

  Rotational constants: A =      0.11597  B =      0.03729  C =      0.02993 [cm^-1]
  Rotational constants: A =   3476.69330  B =   1117.83830  C =    897.42568 [MHz]
  Nuclear repulsion =  406.288295143031974

  Charge       = 1
  Multiplicity = 1
  Electrons    = 64
  Nalpha       = 32
  Nbeta        = 32

  ==> Algorithm <==

  SCF Algorithm Type is DF.
  DIIS enabled.
  MOM disabled.
  Fractional occupation disabled.
  Guess Type is SAD.
  Energy threshold   = 1.00e-08
  Density threshold  = 1.00e-08
  Integral threshold = 0.00e+00

  ==> Primary Basis <==

  Basis Set: STO-3G
    Blend: STO-3G
    Number of shells: 36
    Number of basis function: 54
    Number of Cartesian functions: 54
    Spherical Harmonics?: true
    Max angular momentum: 1

  ==> DFT Potential <==

   => Composite Functional: BLYP <= 

    BLYP GGA Exchange-Correlation Functional

    P.J. Stephens et. al., J. Phys. Chem., 98, 11623-11627, 1994
    B. Miehlich et. al., Chem. Phys. Lett., 157(3), 200-206 1989


    Deriv               =              1
    GGA                 =           TRUE
    Meta                =          FALSE

    Exchange Hybrid     =          FALSE
    MP2 Hybrid          =          FALSE

   => Exchange Functionals <=

    1.0000     XC_GGA_X_B88

   => Correlation Functionals <=

    1.0000     XC_GGA_C_LYP

   => Molecular Quadrature <=

    Radial Scheme          =       TREUTLER
    Pruning Scheme         =           FLAT
    Nuclear Scheme         =       TREUTLER

    BS radius alpha        =              1
    Pruning alpha          =              1
    Radial Points          =             75
    Spherical Points       =            302
    Total Points           =         395441
    Total Blocks           =           2967
    Max Points             =            256
    Max Functions          =             51

   => Loading Basis Set <=

    Name: (STO-3G AUX)
    Role: JKFIT
    Keyword: DF_BASIS_SCF
    atoms 1-7   entry C          line   203 file /home/aaojha/anaconda3/envs/torsiondrive/share/psi4/basis/def2-svp-jkfit.gbs 
    atoms 8-9   entry N          line   263 file /home/aaojha/anaconda3/envs/torsiondrive/share/psi4/basis/def2-svp-jkfit.gbs 
    atoms 10-18 entry H          line    23 file /home/aaojha/anaconda3/envs/torsiondrive/share/psi4/basis/def2-svp-jkfit.gbs 

  ==> Pre-Iterations <==

   -------------------------------------------------------
    Irrep   Nso     Nmo     Nalpha   Nbeta   Ndocc  Nsocc
   -------------------------------------------------------
     A         54      54       0       0       0       0
   -------------------------------------------------------
    Total      54      54      32      32      32       0
   -------------------------------------------------------

  ==> Integral Setup <==

  DFHelper Memory: AOs need 0.024 GiB; user supplied 34.423 GiB. Using in-core AOs.

  ==> MemDFJK: Density-Fitted J/K Matrices <==

    J tasked:                   Yes
    K tasked:                    No
    wK tasked:                   No
    OpenMP threads:               1
    Memory [MiB]:             35249
    Algorithm:                 Core
    Schwarz Cutoff:           1E-12
    Mask sparsity (%):       1.8519
    Fitting Condition:        1E-10

   => Auxiliary Basis Set <=

  Basis Set: (STO-3G AUX)
    Blend: DEF2-SVP-JKFIT
    Number of shells: 279
    Number of basis function: 841
    Number of Cartesian functions: 989
    Spherical Harmonics?: true
    Max angular momentum: 4

  Cached 100.0% of DFT collocation blocks in 0.501 [GiB].

  Minimum eigenvalue in the overlap matrix is 1.8813663115E-01.
  Using Symmetric Orthogonalization.

  SCF Guess: Superposition of Atomic Densities via on-the-fly atomic UHF.

  ==> Iterations <==

                           Total Energy        Delta E     RMS |[F,P]|

   @DF-RKS iter SAD:  -373.14490908573566   -3.73145e+02   0.00000e+00 
   @DF-RKS iter   1:  -376.48593970523177   -3.34103e+00   5.08345e-03 DIIS
   @DF-RKS iter   2:  -376.34268744882183    1.43252e-01   9.95447e-03 DIIS
   @DF-RKS iter   3:  -376.53551497640603   -1.92828e-01   1.63119e-03 DIIS
   @DF-RKS iter   4:  -376.54009187056306   -4.57689e-03   6.81687e-04 DIIS
   @DF-RKS iter   5:  -376.54108900866879   -9.97138e-04   1.60516e-04 DIIS
   @DF-RKS iter   6:  -376.54113937782267   -5.03692e-05   4.25077e-05 DIIS
   @DF-RKS iter   7:  -376.54114256482887   -3.18701e-06   1.30414e-05 DIIS
   @DF-RKS iter   8:  -376.54114286260130   -2.97772e-07   4.42685e-06 DIIS
   @DF-RKS iter   9:  -376.54114290527400   -4.26727e-08   6.31772e-07 DIIS
   @DF-RKS iter  10:  -376.54114290543487   -1.60867e-10   5.84211e-07 DIIS
   @DF-RKS iter  11:  -376.54114290611642   -6.81553e-10   1.04755e-07 DIIS
   @DF-RKS iter  12:  -376.54114290613506   -1.86446e-11   3.88812e-08 DIIS
   @DF-RKS iter  13:  -376.54114290613836   -3.29692e-12   7.85012e-09 DIIS
  Energy and wave function converged.


  ==> Post-Iterations <==

    Orbital Energies [Eh]
    ---------------------

    Doubly Occupied:                                                      

       1A    -14.125436     2A    -14.125330     3A    -10.093396  
       4A     -9.948178     5A     -9.922265     6A     -9.921949  
       7A     -9.910588     8A     -9.908478     9A     -9.908213  
      10A     -1.043727    11A     -0.965337    12A     -0.878821  
      13A     -0.803556    14A     -0.778508    15A     -0.736471  
      16A     -0.678176    17A     -0.664833    18A     -0.638709  
      19A     -0.629897    20A     -0.594733    21A     -0.569652  
      22A     -0.532559    23A     -0.513326    24A     -0.484624  
      25A     -0.484028    26A     -0.476543    27A     -0.416844  
      28A     -0.414412    29A     -0.407957    30A     -0.365387  
      31A     -0.321960    32A     -0.316428  

    Virtual:                                                              

      33A     -0.184731    34A     -0.103584    35A     -0.099082  
      36A      0.012064    37A      0.023340    38A      0.052207  
      39A      0.057499    40A      0.115120    41A      0.121644  
      42A      0.161408    43A      0.185849    44A      0.191083  
      45A      0.224508    46A      0.232328    47A      0.257515  
      48A      0.279067    49A      0.348674    50A      0.349512  
      51A      0.357840    52A      0.371472    53A      0.493592  
      54A      0.536983  

    Final Occupation by Irrep:
              A 
    DOCC [    32 ]

  @DF-RKS Final Energy:  -376.54114290613836

   => Energetics <=

    Nuclear Repulsion Energy =            406.2882951430319736
    One-Electron Energy =               -1303.4908694284340527
    Two-Electron Energy =                 574.9551395694425082
    DFT Exchange-Correlation Energy =     -54.2937081901788403
    Empirical Dispersion Energy =           0.0000000000000000
    VV10 Nonlocal Energy =                  0.0000000000000000
    Total Energy =                       -376.5411429061384183

Computation Completed


Properties will be evaluated at   0.000000,   0.000000,   0.000000 [a0]

Properties computed using the SCF density matrix

  Nuclear Dipole Moment: [e a0]
     X:     1.7439      Y:     0.0178      Z:    -0.0734

  Electronic Dipole Moment: [e a0]
     X:     0.8654      Y:    -0.0328      Z:     0.0232

  Dipole Moment: [e a0]
     X:     2.6093      Y:    -0.0150      Z:    -0.0502     Total:     2.6098

  Dipole Moment: [D]
     X:     6.6322      Y:    -0.0381      Z:    -0.1277     Total:     6.6335


*** tstop() called on aaojha at Fri May 14 09:16:58 2021
Module time:
	user time   =       7.22 seconds =       0.12 minutes
	system time =       0.26 seconds =       0.00 minutes
	total time  =          8 seconds =       0.13 minutes
Total time:
	user time   =       7.22 seconds =       0.12 minutes
	system time =       0.26 seconds =       0.00 minutes
	total time  =          8 seconds =       0.13 minutes

*** tstart() called on aaojha
*** at Fri May 14 09:16:58 2021


         ------------------------------------------------------------
                                   SCF GRAD                          
                          Rob Parrish, Justin Turney,                
                       Andy Simmonett, and Alex Sokolov              
         ------------------------------------------------------------

  ==> Geometry <==

    Molecular point group: c1
    Full point group: C1

    Geometry (in Angstrom), charge = 1, multiplicity = 1:

       Center              X                  Y                   Z               Mass       
    ------------   -----------------  -----------------  -----------------  -----------------
         C            0.183183233495    -0.010765478407     0.022872941373    12.000000000000
         C           -0.534486966505    -1.211780478407    -0.298276558627    12.000000000000
         C           -1.952598266505    -1.193948278407    -0.313493758627    12.000000000000
         C           -2.656486466505     0.008190321593    -0.008047558627    12.000000000000
         C           -1.942743566505     1.203387621593     0.303018441373    12.000000000000
         C           -0.524598566505     1.205843621593     0.304771341373    12.000000000000
         C            1.692797433495    -0.010572778407    -0.009364858627    12.000000000000
         N            2.401939233495    -1.050004178407     0.560207141373    14.003074004430
         N            2.377690733495     1.056901421593    -0.555837858627    14.003074004430
         H            0.012377933495    -2.138752078407    -0.559520958627     1.007825032230
         H           -2.510623066505    -2.115324678407    -0.570658958627     1.007825032230
         H           -3.764883966505     0.014808221593    -0.015966558627     1.007825032230
         H           -2.493753366505     2.133354621593     0.543954841373     1.007825032230
         H            0.029108933495     2.129099021593     0.564522841373     1.007825032230
         H            3.451065133495    -1.123504078407     0.504835641373     1.007825032230
         H            1.881511633495    -1.831604878407     1.032880641373     1.007825032230
         H            3.427994433495     1.130613721593    -0.537336158627     1.007825032230
         H            1.842216133495     1.820324121593    -1.041041658627     1.007825032230

  Nuclear repulsion =  406.288295143031974

  ==> Basis Set <==

  Basis Set: STO-3G
    Blend: STO-3G
    Number of shells: 36
    Number of basis function: 54
    Number of Cartesian functions: 54
    Spherical Harmonics?: true
    Max angular momentum: 1

  ==> DFJKGrad: Density-Fitted SCF Gradients <==

    Gradient:                    1
    J tasked:                  Yes
    K tasked:                   No
    wK tasked:                  No
    OpenMP threads:              1
    Integrals threads:           1
    Memory [MiB]:            35762
    Schwarz Cutoff:          0E+00
    Fitting Condition:       1E-10

   => Auxiliary Basis Set <=

  Basis Set: (STO-3G AUX)
    Blend: DEF2-SVP-JKFIT
    Number of shells: 279
    Number of basis function: 841
    Number of Cartesian functions: 989
    Spherical Harmonics?: true
    Max angular momentum: 4

  ==> DFT Potential <==

   => Composite Functional: BLYP <= 

    BLYP GGA Exchange-Correlation Functional

    P.J. Stephens et. al., J. Phys. Chem., 98, 11623-11627, 1994
    B. Miehlich et. al., Chem. Phys. Lett., 157(3), 200-206 1989


    Deriv               =              1
    GGA                 =           TRUE
    Meta                =          FALSE

    Exchange Hybrid     =          FALSE
    MP2 Hybrid          =          FALSE

   => Exchange Functionals <=

    1.0000     XC_GGA_X_B88

   => Correlation Functionals <=

    1.0000     XC_GGA_C_LYP

   => Molecular Quadrature <=

    Radial Scheme          =       TREUTLER
    Pruning Scheme         =           FLAT
    Nuclear Scheme         =       TREUTLER

    BS radius alpha        =              1
    Pruning alpha          =              1
    Radial Points          =             75
    Spherical Points       =            302
    Total Points           =         395441
    Total Blocks           =           2967
    Max Points             =            256
    Max Functions          =             51


  -Total Gradient:
     Atom            X                  Y                   Z
    ------   -----------------  -----------------  -----------------
       1        0.000133465993    -0.000414968647     0.005226483276
       2       -0.000073220299     0.000772535030    -0.002758384590
       3       -0.000013763994    -0.000033801683    -0.000004726047
       4        0.000087741844     0.000003118884     0.000000605119
       5       -0.000043360529     0.000061892412     0.000026166277
       6       -0.000021056160    -0.000030456786    -0.000020398113
       7       -0.000165879965    -0.001767252948    -0.005067416458
       8        0.000128554484     0.001522117083     0.002726606764
       9        0.000000025166    -0.000147382128    -0.000141481300
      10       -0.000001858302    -0.000001983936    -0.000011015481
      11        0.000007324995    -0.000007104729     0.000000306678
      12        0.000008321987     0.000001386808    -0.000001130848
      13        0.000001569672     0.000006539025     0.000000570955
      14       -0.000008167971     0.000003650977     0.000001850528
      15        0.000010261071     0.000019473944    -0.000060422392
      16       -0.000007151460    -0.000026386520    -0.000040075894
      17       -0.000002766665     0.000010542261     0.000067633181
      18       -0.000008788275     0.000036415892     0.000055959642


*** tstop() called on aaojha at Fri May 14 09:17:00 2021
Module time:
	user time   =       2.12 seconds =       0.04 minutes
	system time =       0.00 seconds =       0.00 minutes
	total time  =          2 seconds =       0.03 minutes
Total time:
	user time   =       9.34 seconds =       0.16 minutes
	system time =       0.26 seconds =       0.00 minutes
	total time  =         10 seconds =       0.17 minutes

    Psi4 stopped on: Friday, 14 May 2021 09:17AM
    Psi4 wall time for execution: 0:00:09.66

*** Psi4 exiting successfully. Buy a developer a beer!
