 Entering Gaussian System, Link 0=g16
 Initial command:
 /software/repo/qm/gaussian/16.B01-sse4/l1.exe "/home/aaojha/Downloads/qmmmrebind/Gau-16490.inp" -scrdir="/home/aaojha/Downloads/qmmmrebind/"
 Entering Link 1 = /software/repo/qm/gaussian/16.B01-sse4/l1.exe PID=     16492.
  
 Copyright (c) 1988-2017, Gaussian, Inc.  All Rights Reserved.
  
 This is part of the Gaussian(R) 16 program.  It is based on
 the Gaussian(R) 09 system (copyright 2009, Gaussian, Inc.),
 the Gaussian(R) 03 system (copyright 2003, Gaussian, Inc.),
 the Gaussian(R) 98 system (copyright 1998, Gaussian, Inc.),
 the Gaussian(R) 94 system (copyright 1995, Gaussian, Inc.),
 the Gaussian 92(TM) system (copyright 1992, Gaussian, Inc.),
 the Gaussian 90(TM) system (copyright 1990, Gaussian, Inc.),
 the Gaussian 88(TM) system (copyright 1988, Gaussian, Inc.),
 the Gaussian 86(TM) system (copyright 1986, Carnegie Mellon
 University), and the Gaussian 82(TM) system (copyright 1983,
 Carnegie Mellon University). Gaussian is a federally registered
 trademark of Gaussian, Inc.
  
 This software contains proprietary and confidential information,
 including trade secrets, belonging to Gaussian, Inc.
  
 This software is provided under written license and may be
 used, copied, transmitted, or stored only in accord with that
 written license.
  
 The following legend is applicable only to US Government
 contracts under FAR:
  
                    RESTRICTED RIGHTS LEGEND
  
 Use, reproduction and disclosure by the US Government is
 subject to restrictions as set forth in subparagraphs (a)
 and (c) of the Commercial Computer Software - Restricted
 Rights clause in FAR 52.227-19.
  
 Gaussian, Inc.
 340 Quinnipiac St., Bldg. 40, Wallingford CT 06492
  
  
 ---------------------------------------------------------------
 Warning -- This program may not be used in any manner that
 competes with the business of Gaussian, Inc. or will provide
 assistance to any competitor of Gaussian, Inc.  The licensee
 of this program is prohibited from giving any competitor of
 Gaussian, Inc. access to this program.  By using this program,
 the user acknowledges that Gaussian, Inc. is engaged in the
 business of creating and licensing software in the field of
 computational chemistry and represents and warrants to the
 licensee that it is not a competitor of Gaussian, Inc. and that
 it will not use this program in any manner prohibited above.
 ---------------------------------------------------------------
  

 Cite this work as:
 Gaussian 16, Revision B.01,
 M. J. Frisch, G. W. Trucks, H. B. Schlegel, G. E. Scuseria, 
 M. A. Robb, J. R. Cheeseman, G. Scalmani, V. Barone, 
 G. A. Petersson, H. Nakatsuji, X. Li, M. Caricato, A. V. Marenich, 
 J. Bloino, B. G. Janesko, R. Gomperts, B. Mennucci, H. P. Hratchian, 
 J. V. Ortiz, A. F. Izmaylov, J. L. Sonnenberg, D. Williams-Young, 
 F. Ding, F. Lipparini, F. Egidi, J. Goings, B. Peng, A. Petrone, 
 T. Henderson, D. Ranasinghe, V. G. Zakrzewski, J. Gao, N. Rega, 
 G. Zheng, W. Liang, M. Hada, M. Ehara, K. Toyota, R. Fukuda, 
 J. Hasegawa, M. Ishida, T. Nakajima, Y. Honda, O. Kitao, H. Nakai, 
 T. Vreven, K. Throssell, J. A. Montgomery, Jr., J. E. Peralta, 
 F. Ogliaro, M. J. Bearpark, J. J. Heyd, E. N. Brothers, K. N. Kudin, 
 V. N. Staroverov, T. A. Keith, R. Kobayashi, J. Normand, 
 K. Raghavachari, A. P. Rendell, J. C. Burant, S. S. Iyengar, 
 J. Tomasi, M. Cossi, J. M. Millam, M. Klene, C. Adamo, R. Cammi, 
 J. W. Ochterski, R. L. Martin, K. Morokuma, O. Farkas, 
 J. B. Foresman, and D. J. Fox, Gaussian, Inc., Wallingford CT, 2016.
 
 ******************************************
 Gaussian 16:  ES64L-G16RevB.01 20-Dec-2017
                 8-May-2021 
 ******************************************
 %Chk = guest_init_II.chk
 %Mem = 50GB
 %NProcShared = 12
 Will use up to   12 processors via shared memory.
 ----------------------------------------------------------------------
 # B3LYP 6-31G OPT FREQ Integral=(Grid=UltraFine) Pop(MK,ReadRadii) IOp
 (6/33=2,6/42=6)
 ----------------------------------------------------------------------
 1/18=20,19=15,26=4,38=1/1,3;
 2/9=110,12=2,17=6,18=5,40=1/2;
 3/5=1,6=6,11=2,25=1,30=1,71=1,74=-5,75=-5/1,2,3;
 4//1;
 5/5=2,38=5/2;
 6/7=2,8=2,9=2,10=2,15=8,20=101,28=1,33=2,42=6/1,2;
 7//1,2,3,16;
 1/18=20,19=15,26=4/3(2);
 2/9=110/2;
 99//99;
 2/9=110/2;
 3/5=1,6=6,11=2,25=1,30=1,71=1,74=-5,75=-5/1,2,3;
 4/5=5,16=3,69=1/1;
 5/5=2,38=5/2;
 7//1,2,3,16;
 1/18=20,19=15,26=4/3(-5);
 2/9=110/2;
 6/7=2,8=2,9=2,10=2,15=8,19=2,20=101,28=1,33=2,42=6/1,2;
 99/9=1/99;
 ---------------------------------
 guest_init_II gaussian input file
 ---------------------------------
 Symbolic Z-matrix:
 Charge =  1 Multiplicity = 1
 C                     25.897    35.473    23.918 
 C                     25.552    36.803    23.714 
 C                     25.205    37.274    22.371 
 C                     25.008    36.365    21.336 
 C                     25.342    35.033    21.579 
 C                     25.814    34.59     22.831 
 C                     26.396    34.832    25.173 
 N                     26.56     35.606    26.275 
 N                     26.901    33.514    25.213 
 H                     25.622    37.545    24.504 
 H                     24.881    38.306    22.272 
 H                     24.645    36.652    20.354 
 H                     25.356    34.425    20.679 
 H                     26.099    33.544    22.897 
 H                     27.166    35.296    27.024 
 H                     26.54     36.555    25.925 
 H                     27.776    33.309    25.679 
 H                     26.647    32.877    24.468 
 

 GradGradGradGradGradGradGradGradGradGradGradGradGradGradGradGradGradGrad
 Berny optimization.
 Initialization pass.
                           ----------------------------
                           !    Initial Parameters    !
                           ! (Angstroms and Degrees)  !
 --------------------------                            --------------------------
 ! Name  Definition              Value          Derivative Info.                !
 --------------------------------------------------------------------------------
 ! R1    R(1,2)                  1.3891         estimate D2E/DX2                !
 ! R2    R(1,6)                  1.4029         estimate D2E/DX2                !
 ! R3    R(1,7)                  1.495          estimate D2E/DX2                !
 ! R4    R(2,3)                  1.4649         estimate D2E/DX2                !
 ! R5    R(2,10)                 1.0861         estimate D2E/DX2                !
 ! R6    R(3,4)                  1.3915         estimate D2E/DX2                !
 ! R7    R(3,11)                 1.0862         estimate D2E/DX2                !
 ! R8    R(4,5)                  1.3946         estimate D2E/DX2                !
 ! R9    R(4,12)                 1.0856         estimate D2E/DX2                !
 ! R10   R(5,6)                  1.4094         estimate D2E/DX2                !
 ! R11   R(5,13)                 1.0862         estimate D2E/DX2                !
 ! R12   R(6,14)                 1.0861         estimate D2E/DX2                !
 ! R13   R(7,8)                  1.3566         estimate D2E/DX2                !
 ! R14   R(7,9)                  1.412          estimate D2E/DX2                !
 ! R15   R(8,15)                 1.0121         estimate D2E/DX2                !
 ! R16   R(8,16)                 1.0117         estimate D2E/DX2                !
 ! R17   R(9,17)                 1.0123         estimate D2E/DX2                !
 ! R18   R(9,18)                 1.0126         estimate D2E/DX2                !
 ! A1    A(2,1,6)              118.3043         estimate D2E/DX2                !
 ! A2    A(2,1,7)              128.0775         estimate D2E/DX2                !
 ! A3    A(6,1,7)              113.5985         estimate D2E/DX2                !
 ! A4    A(1,2,3)              120.0876         estimate D2E/DX2                !
 ! A5    A(1,2,10)             122.0936         estimate D2E/DX2                !
 ! A6    A(3,2,10)             117.5465         estimate D2E/DX2                !
 ! A7    A(2,3,4)              120.3582         estimate D2E/DX2                !
 ! A8    A(2,3,11)             117.3681         estimate D2E/DX2                !
 ! A9    A(4,3,11)             120.7061         estimate D2E/DX2                !
 ! A10   A(3,4,5)              117.4145         estimate D2E/DX2                !
 ! A11   A(3,4,12)             123.1935         estimate D2E/DX2                !
 ! A12   A(5,4,12)             119.3553         estimate D2E/DX2                !
 ! A13   A(4,5,6)              122.357          estimate D2E/DX2                !
 ! A14   A(4,5,13)             113.1625         estimate D2E/DX2                !
 ! A15   A(6,5,13)             123.7632         estimate D2E/DX2                !
 ! A16   A(1,6,5)              120.6806         estimate D2E/DX2                !
 ! A17   A(1,6,14)             122.925          estimate D2E/DX2                !
 ! A18   A(5,6,14)             116.3941         estimate D2E/DX2                !
 ! A19   A(1,7,8)              118.5322         estimate D2E/DX2                !
 ! A20   A(1,7,9)              122.9147         estimate D2E/DX2                !
 ! A21   A(8,7,9)              117.7951         estimate D2E/DX2                !
 ! A22   A(7,8,15)             119.9198         estimate D2E/DX2                !
 ! A23   A(7,8,16)             104.5824         estimate D2E/DX2                !
 ! A24   A(15,8,16)            123.7232         estimate D2E/DX2                !
 ! A25   A(7,9,17)             120.7434         estimate D2E/DX2                !
 ! A26   A(7,9,18)             118.4669         estimate D2E/DX2                !
 ! A27   A(17,9,18)            115.3475         estimate D2E/DX2                !
 ! D1    D(6,1,2,3)             -4.2685         estimate D2E/DX2                !
 ! D2    D(6,1,2,10)          -178.1256         estimate D2E/DX2                !
 ! D3    D(7,1,2,3)            174.0028         estimate D2E/DX2                !
 ! D4    D(7,1,2,10)             0.1458         estimate D2E/DX2                !
 ! D5    D(2,1,6,5)             -2.4569         estimate D2E/DX2                !
 ! D6    D(2,1,6,14)           177.7497         estimate D2E/DX2                !
 ! D7    D(7,1,6,5)            179.028          estimate D2E/DX2                !
 ! D8    D(7,1,6,14)            -0.7654         estimate D2E/DX2                !
 ! D9    D(2,1,7,8)             -0.6166         estimate D2E/DX2                !
 ! D10   D(2,1,7,9)           -170.4135         estimate D2E/DX2                !
 ! D11   D(6,1,7,8)            177.7226         estimate D2E/DX2                !
 ! D12   D(6,1,7,9)              7.9257         estimate D2E/DX2                !
 ! D13   D(1,2,3,4)             10.3633         estimate D2E/DX2                !
 ! D14   D(1,2,3,11)           176.189          estimate D2E/DX2                !
 ! D15   D(10,2,3,4)          -175.5053         estimate D2E/DX2                !
 ! D16   D(10,2,3,11)           -9.6796         estimate D2E/DX2                !
 ! D17   D(2,3,4,5)             -9.127          estimate D2E/DX2                !
 ! D18   D(2,3,4,12)           173.0951         estimate D2E/DX2                !
 ! D19   D(11,3,4,5)          -174.4763         estimate D2E/DX2                !
 ! D20   D(11,3,4,12)            7.7457         estimate D2E/DX2                !
 ! D21   D(3,4,5,6)              2.3923         estimate D2E/DX2                !
 ! D22   D(3,4,5,13)          -168.2365         estimate D2E/DX2                !
 ! D23   D(12,4,5,6)          -179.741          estimate D2E/DX2                !
 ! D24   D(12,4,5,13)            9.6302         estimate D2E/DX2                !
 ! D25   D(4,5,6,1)              3.5808         estimate D2E/DX2                !
 ! D26   D(4,5,6,14)          -176.6128         estimate D2E/DX2                !
 ! D27   D(13,5,6,1)           173.2066         estimate D2E/DX2                !
 ! D28   D(13,5,6,14)           -6.987          estimate D2E/DX2                !
 ! D29   D(1,7,8,15)          -159.7085         estimate D2E/DX2                !
 ! D30   D(1,7,8,16)           -15.4573         estimate D2E/DX2                !
 ! D31   D(9,7,8,15)            10.6142         estimate D2E/DX2                !
 ! D32   D(9,7,8,16)           154.8654         estimate D2E/DX2                !
 ! D33   D(1,7,9,17)           132.13           estimate D2E/DX2                !
 ! D34   D(1,7,9,18)           -20.632          estimate D2E/DX2                !
 ! D35   D(8,7,9,17)           -37.7377         estimate D2E/DX2                !
 ! D36   D(8,7,9,18)           169.5004         estimate D2E/DX2                !
 --------------------------------------------------------------------------------
 Trust Radius=3.00D-01 FncErr=1.00D-07 GrdErr=1.00D-06 EigMax=2.50D+02 EigMin=1.00D-04
 Number of steps in this run=     91 maximum allowed number of steps=    108.
 GradGradGradGradGradGradGradGradGradGradGradGradGradGradGradGradGradGrad

                          Input orientation:                          
 ---------------------------------------------------------------------
 Center     Atomic      Atomic             Coordinates (Angstroms)
 Number     Number       Type             X           Y           Z
 ---------------------------------------------------------------------
      1          6           0       25.897000   35.473000   23.918000
      2          6           0       25.552000   36.803000   23.714000
      3          6           0       25.205000   37.274000   22.371000
      4          6           0       25.008000   36.365000   21.336000
      5          6           0       25.342000   35.033000   21.579000
      6          6           0       25.814000   34.590000   22.831000
      7          6           0       26.396000   34.832000   25.173000
      8          7           0       26.560000   35.606000   26.275000
      9          7           0       26.901000   33.514000   25.213000
     10          1           0       25.622000   37.545000   24.504000
     11          1           0       24.881000   38.306000   22.272000
     12          1           0       24.645000   36.652000   20.354000
     13          1           0       25.356000   34.425000   20.679000
     14          1           0       26.099000   33.544000   22.897000
     15          1           0       27.166000   35.296000   27.024000
     16          1           0       26.540000   36.555000   25.925000
     17          1           0       27.776000   33.309000   25.679000
     18          1           0       26.647000   32.877000   24.468000
 ---------------------------------------------------------------------
                    Distance matrix (angstroms):
                    1          2          3          4          5
     1  C    0.000000
     2  C    1.389079   0.000000
     3  C    2.472989   1.464889   0.000000
     4  C    2.872753   2.478440   1.391515   0.000000
     5  C    2.443879   2.781227   2.380780   1.394571   0.000000
     6  C    1.402907   2.397019   2.790401   2.456682   1.409446
     7  C    1.494961   2.593426   3.902954   4.358807   3.750754
     8  N    2.452082   3.001265   4.456396   5.232447   4.885107
     9  N    2.553962   3.858021   5.009090   5.171342   4.236012
    10  H    2.170761   1.086077   2.190210   3.435931   3.865769
    11  H    3.430373   2.188290   1.086186   2.158635   3.377173
    12  H    3.957226   3.483540   2.183752   1.085570   2.146531
    13  H    3.447043   3.860638   3.316997   2.077583   1.086214
    14  H    2.191868   3.404083   3.871539   3.403681   2.127744
    15  H    3.359900   3.978963   5.422953   6.176817   5.748406
    16  H    2.369013   2.434372   3.863949   4.841699   4.758088
    17  H    3.363727   4.584260   5.768373   5.988540   5.070161
    18  H    2.757574   4.144999   5.080392   4.966074   3.833756
                    6          7          8          9         10
     6  C    0.000000
     7  C    2.425335   0.000000
     8  N    3.667412   1.356605   0.000000
     9  N    2.830772   1.412002   2.370778   0.000000
    10  H    3.401150   2.899484   2.788549   4.288063   0.000000
    11  H    3.871902   4.772809   5.112049   5.974374   2.471847
    12  H    3.428401   5.440695   6.310276   6.208580   4.355970
    13  H    2.206376   4.630689   5.844621   4.875869   4.943256
    14  H    1.086139   2.631982   3.984376   2.451114   4.337969
    15  H    4.461792   2.057765   1.012095   2.554500   3.713804
    16  H    3.736460   1.885463   1.011682   3.144033   1.960119
    17  H    3.688022   2.116593   2.666474   1.012327   4.895308
    18  H    2.511579   2.093335   3.274181   1.012576   4.779346
                   11         12         13         14         15
    11  H    0.000000
    12  H    2.543646   0.000000
    13  H    4.222018   2.360228   0.000000
    14  H    4.954876   4.270905   2.499547   0.000000
    15  H    6.071477   7.258311   6.655356   4.608701   0.000000
    16  H    4.377521   5.885276   5.784399   4.292946   1.784589
    17  H    6.705124   7.023848   5.665850   3.256851   2.475741
    18  H    6.116798   5.931579   4.291795   1.792550   3.557254
                   16         17         18
    16  H    0.000000
    17  H    3.482058   0.000000
    18  H    3.957522   1.711077   0.000000
 Stoichiometry    C7H9N2(1+)
 Framework group  C1[X(C7H9N2)]
 Deg. of freedom    48
 Full point group                 C1      NOp   1
 Largest Abelian subgroup         C1      NOp   1
 Largest concise Abelian subgroup C1      NOp   1
                         Standard orientation:                         
 ---------------------------------------------------------------------
 Center     Atomic      Atomic             Coordinates (Angstroms)
 Number     Number       Type             X           Y           Z
 ---------------------------------------------------------------------
      1          6           0        0.185441   -0.116090   -0.073201
      2          6           0       -0.608748   -1.255126   -0.035766
      3          6           0       -2.060126   -1.133597    0.121176
      4          6           0       -2.676977    0.109483    0.018405
      5          6           0       -1.852349    1.232575   -0.040599
      6          6           0       -0.446219    1.136339   -0.049207
      7          6           0        1.677816   -0.033229   -0.102502
      8          7           0        2.391415   -1.186763   -0.079883
      9          7           0        2.382196    1.180000    0.057724
     10          1           0       -0.183925   -2.254567   -0.021359
     11          1           0       -2.644990   -2.048002    0.081190
     12          1           0       -3.754677    0.239956    0.018127
     13          1           0       -2.392766    2.166474    0.084472
     14          1           0        0.101983    2.073931   -0.039622
     15          1           0        3.361998   -1.174411    0.206740
     16          1           0        1.727680   -1.891139    0.214756
     17          1           0        3.163714    1.243987    0.697990
     18          1           0        1.892687    2.048998   -0.117016
 ---------------------------------------------------------------------
 Rotational constants (GHZ):           3.6621266           1.1617773           0.8855507
 Standard basis: 6-31G (6D, 7F)
 There are    99 symmetry adapted cartesian basis functions of A   symmetry.
 There are    99 symmetry adapted basis functions of A   symmetry.
    99 basis functions,   234 primitive gaussians,    99 cartesian basis functions
    32 alpha electrons       32 beta electrons
       nuclear repulsion energy       412.2713010324 Hartrees.
 NAtoms=   18 NActive=   18 NUniq=   18 SFac= 1.00D+00 NAtFMM=   60 NAOKFM=F Big=F
 Integral buffers will be    131072 words long.
 Raffenetti 2 integral format.
 Two-electron integral symmetry is turned on.
 One-electron integrals computed using PRISM.
 NBasis=    99 RedAO= T EigKep=  7.87D-04  NBF=    99
 NBsUse=    99 1.00D-06 EigRej= -1.00D+00 NBFU=    99
 ExpMin= 1.61D-01 ExpMax= 4.17D+03 ExpMxC= 6.27D+02 IAcc=3 IRadAn=         5 AccDes= 0.00D+00
 Harris functional with IExCor=  402 and IRadAn=       5 diagonalized for initial guess.
 HarFok:  IExCor=  402 AccDes= 0.00D+00 IRadAn=         5 IDoV= 1 UseB2=F ITyADJ=14
 ICtDFT=  3500011 ScaDFX=  1.000000  1.000000  1.000000  1.000000
 FoFCou: FMM=F IPFlag=           0 FMFlag=      100000 FMFlg1=           0
         NFxFlg=           0 DoJE=T BraDBF=F KetDBF=T FulRan=T
         wScrn=  0.000000 ICntrl=       500 IOpCl=  0 I1Cent=   200000004 NGrid=           0
         NMat0=    1 NMatS0=      1 NMatT0=    0 NMatD0=    1 NMtDS0=    0 NMtDT0=    0
 Petite list used in FoFCou.
 Requested convergence on RMS density matrix=1.00D-08 within 128 cycles.
 Requested convergence on MAX density matrix=1.00D-06.
 Requested convergence on             energy=1.00D-06.
 No special actions if energy rises.
 Integral accuracy reduced to 1.0D-05 until final iterations.
 Initial convergence to 1.0D-05 achieved.  Increase integral accuracy.
 SCF Done:  E(RB3LYP) =  -381.326757503     A.U. after   14 cycles
            NFock= 14  Conv=0.50D-08     -V/T= 2.0064
 SCF density gives NOpUse=  1 NOpAll=  1.

 **********************************************************************

            Population analysis using the SCF Density.

 **********************************************************************

 Orbital symmetries:
 BldTbl:  Degeneracy threshold= 1.00D-02
       Occupied  (A) (A) (A) (A) (A) (A) (A) (A) (A) (A) (A) (A)
                 (A) (A) (A) (A) (A) (A) (A) (A) (A) (A) (A) (A)
                 (A) (A) (A) (A) (A) (A) (A) (A)
       Virtual   (A) (A) (A) (A) (A) (A) (A) (A) (A) (A) (A) (A)
                 (A) (A) (A) (A) (A) (A) (A) (A) (A) (A) (A) (A)
                 (A) (A) (A) (A) (A) (A) (A) (A) (A) (A) (A) (A)
                 (A) (A) (A) (A) (A) (A) (A) (A) (A) (A) (A) (A)
                 (A) (A) (A) (A) (A) (A) (A) (A) (A) (A) (A) (A)
                 (A) (A) (A) (A) (A) (A) (A)
 The electronic state is 1-A.
 Alpha  occ. eigenvalues --  -14.57059 -14.55680 -10.51319 -10.38814 -10.37295
 Alpha  occ. eigenvalues --  -10.36353 -10.35330 -10.34790 -10.34462  -1.18239
 Alpha  occ. eigenvalues --   -1.08989  -1.02667  -0.94097  -0.90583  -0.84818
 Alpha  occ. eigenvalues --   -0.79074  -0.78056  -0.74983  -0.73183  -0.68560
 Alpha  occ. eigenvalues --   -0.67731  -0.64086  -0.61316  -0.60156  -0.59226
 Alpha  occ. eigenvalues --   -0.57557  -0.52495  -0.51642  -0.50416  -0.47187
 Alpha  occ. eigenvalues --   -0.42580  -0.40687
 Alpha virt. eigenvalues --   -0.24871  -0.16924  -0.13379  -0.11420  -0.08522
 Alpha virt. eigenvalues --   -0.06461  -0.04550  -0.02669  -0.00217   0.00619
 Alpha virt. eigenvalues --    0.03153   0.04087   0.06905   0.07957   0.10709
 Alpha virt. eigenvalues --    0.11611   0.14114   0.17777   0.22622   0.22792
 Alpha virt. eigenvalues --    0.32496   0.34356   0.36276   0.39280   0.40192
 Alpha virt. eigenvalues --    0.41084   0.42829   0.43331   0.44256   0.45632
 Alpha virt. eigenvalues --    0.47810   0.48624   0.49289   0.49886   0.51641
 Alpha virt. eigenvalues --    0.52493   0.53790   0.54794   0.58505   0.59662
 Alpha virt. eigenvalues --    0.62807   0.67986   0.69147   0.70934   0.72361
 Alpha virt. eigenvalues --    0.73646   0.74910   0.77601   0.79450   0.80892
 Alpha virt. eigenvalues --    0.82639   0.84433   0.84836   0.91430   0.94342
 Alpha virt. eigenvalues --    0.96730   1.00747   1.02993   1.05885   1.06762
 Alpha virt. eigenvalues --    1.13561   1.20887   1.24695   1.27643   1.34126
 Alpha virt. eigenvalues --    1.49289   1.57873
          Condensed to atoms (all electrons):
               1          2          3          4          5          6
     1  C    4.942660   0.470315  -0.023073  -0.028779  -0.030950   0.472772
     2  C    0.470315   5.027379   0.499327  -0.051023  -0.038979  -0.067871
     3  C   -0.023073   0.499327   4.877062   0.523390  -0.045038  -0.039119
     4  C   -0.028779  -0.051023   0.523390   4.878702   0.510821  -0.052790
     5  C   -0.030950  -0.038979  -0.045038   0.510821   4.895097   0.514380
     6  C    0.472772  -0.067871  -0.039119  -0.052790   0.514380   5.012956
     7  C    0.325347  -0.031806   0.004356   0.000363   0.005890  -0.026482
     8  N   -0.055595  -0.011973   0.000192  -0.000001  -0.000183   0.004893
     9  N   -0.059084   0.003706  -0.000048  -0.000020   0.001104  -0.017988
    10  H   -0.054187   0.357612  -0.018553   0.003737   0.000176   0.003816
    11  H    0.003677  -0.030422   0.360406  -0.031437   0.004647   0.000801
    12  H    0.000426   0.003761  -0.029066   0.360493  -0.030110   0.004513
    13  H    0.003100   0.000908   0.005013  -0.036703   0.358698  -0.024249
    14  H   -0.055654   0.003068   0.000419   0.004109  -0.015904   0.353638
    15  H    0.004557  -0.000056   0.000001   0.000000   0.000002  -0.000125
    16  H   -0.010112   0.012276  -0.000221   0.000022  -0.000015   0.000542
    17  H    0.002856  -0.000023   0.000001   0.000001  -0.000007  -0.000040
    18  H   -0.007590  -0.000096  -0.000001   0.000012  -0.000093   0.006680
               7          8          9         10         11         12
     1  C    0.325347  -0.055595  -0.059084  -0.054187   0.003677   0.000426
     2  C   -0.031806  -0.011973   0.003706   0.357612  -0.030422   0.003761
     3  C    0.004356   0.000192  -0.000048  -0.018553   0.360406  -0.029066
     4  C    0.000363  -0.000001  -0.000020   0.003737  -0.031437   0.360493
     5  C    0.005890  -0.000183   0.001104   0.000176   0.004647  -0.030110
     6  C   -0.026482   0.004893  -0.017988   0.003816   0.000801   0.004513
     7  C    4.680306   0.312445   0.340722  -0.006279  -0.000134   0.000005
     8  N    0.312445   6.867414  -0.099903  -0.000867   0.000002   0.000000
     9  N    0.340722  -0.099903   6.899684  -0.000019   0.000000  -0.000000
    10  H   -0.006279  -0.000867  -0.000019   0.539933  -0.003599  -0.000106
    11  H   -0.000134   0.000002   0.000000  -0.003599   0.516552  -0.003020
    12  H    0.000005   0.000000  -0.000000  -0.000106  -0.003020   0.498167
    13  H   -0.000173   0.000001   0.000005   0.000009  -0.000190  -0.004695
    14  H   -0.007227   0.000240  -0.000882  -0.000143   0.000007  -0.000151
    15  H   -0.020554   0.318269  -0.003075  -0.000027  -0.000000   0.000000
    16  H   -0.033314   0.305479   0.004701   0.009662  -0.000000  -0.000000
    17  H   -0.020247  -0.004584   0.322349  -0.000001  -0.000000   0.000000
    18  H   -0.015610   0.003810   0.310813  -0.000002   0.000000  -0.000000
              13         14         15         16         17         18
     1  C    0.003100  -0.055654   0.004557  -0.010112   0.002856  -0.007590
     2  C    0.000908   0.003068  -0.000056   0.012276  -0.000023  -0.000096
     3  C    0.005013   0.000419   0.000001  -0.000221   0.000001  -0.000001
     4  C   -0.036703   0.004109   0.000000   0.000022   0.000001   0.000012
     5  C    0.358698  -0.015904   0.000002  -0.000015  -0.000007  -0.000093
     6  C   -0.024249   0.353638  -0.000125   0.000542  -0.000040   0.006680
     7  C   -0.000173  -0.007227  -0.020554  -0.033314  -0.020247  -0.015610
     8  N    0.000001   0.000240   0.318269   0.305479  -0.004584   0.003810
     9  N    0.000005  -0.000882  -0.003075   0.004701   0.322349   0.310813
    10  H    0.000009  -0.000143  -0.000027   0.009662  -0.000001  -0.000002
    11  H   -0.000190   0.000007  -0.000000  -0.000000  -0.000000   0.000000
    12  H   -0.004695  -0.000151   0.000000  -0.000000   0.000000  -0.000000
    13  H    0.519127  -0.003240  -0.000000   0.000000  -0.000000  -0.000013
    14  H   -0.003240   0.562280  -0.000002  -0.000016   0.000124   0.012500
    15  H   -0.000000  -0.000002   0.341696  -0.015747   0.002200  -0.000014
    16  H    0.000000  -0.000016  -0.015747   0.361837  -0.000069  -0.000115
    17  H   -0.000000   0.000124   0.002200  -0.000069   0.343413  -0.018437
    18  H   -0.000013   0.012500  -0.000014  -0.000115  -0.018437   0.331249
 Mulliken charges:
               1
     1  C    0.099313
     2  C   -0.146102
     3  C   -0.115048
     4  C   -0.080895
     5  C   -0.129536
     6  C   -0.146326
     7  C    0.492392
     8  N   -0.639639
     9  N   -0.702066
    10  H    0.168839
    11  H    0.182709
    12  H    0.199784
    13  H    0.182403
    14  H    0.146833
    15  H    0.372876
    16  H    0.365091
    17  H    0.372465
    18  H    0.376908
 Sum of Mulliken charges =   1.00000
 Mulliken charges with hydrogens summed into heavy atoms:
               1
     1  C    0.099313
     2  C    0.022737
     3  C    0.067661
     4  C    0.118888
     5  C    0.052867
     6  C    0.000507
     7  C    0.492392
     8  N    0.098328
     9  N    0.047307
 DipInt: DoE/N= T F RetVal/Mat= T F Init=T NMatP=  1 IDeriv=0 Min/MaxMlt=  0  4
 Entering OneElI...
 OneElI was handed  6710859231 working-precision words.
 Multipole integrals L=0 to 4 MinM= 0 MaxM= 0.
 Requested accuracy = 0.1000D-12
 ShPair: Thresh= 1.00D-13 NBox=     0 BxSize= 0.00D+00 RnKept= 1.37D+01
         NSMCal=                 1035 NSMKep=                 967
 PrmmSu-InSpLW:  IPartL=    0 NPrtUS=    1 NPrtUL=    1 DoSpLW=F IThBeg=    0 IThEnd=    0 NThAct=    1.
 PrSmSu:  IncTry=   512 NBBP=            967 NTPThr=   100 NPartT=    1 Incr=           9 LDynOK=F GPUOK=F.
 PrsmSu:  NPrtUS=   1 ThrOK=F IAlg=2 LenDen=           0 ISkipM=0 DoSpLW=F IThBeg=    0 IThEnd=    0.
 Prism:   IPart=     0 DynPar=F LinDyn=F Incr=           9.
 PRISM was handed  6710765567 working-precision words and   967 shell-pairs
 IPart=  0 NShTot=         967 NBatch=          34 AvBLen=        28.4
 PrsmSu-ThDecC:  IPartSL=    0    0 NPrtUSL=    1    1 IThBeg=    0 IThEnd=    0 CPU=   -1 GPU=   -1 NThAct=    1.
 PrSmSu:  NxtVal=             10.
 Electronic moments (au):
        -64.00000000          1.77735759          0.03447058          0.75216390
       -883.33888908       -321.51165588        -43.93888077          0.08642806
          4.43959180         -0.34200617         14.55000578          1.15059125
          0.68605682        -14.77883984         -5.54943961        -44.53356412
         -0.28176312         -0.92586189         -4.96165233        -38.88304922
     -21343.58825311      -3366.90529855       -155.18285265         52.17499779
         -6.18626692        -51.88459948          9.46194096          4.73049807
         -2.60990236      -4257.26741501       -636.24700548       -240.74521245
        -59.59989986         10.67322839        -14.14947777
 Electronic spatial extent (au):  <R**2>=           1248.7894
 DipInt: DoE/N= F T RetVal/Mat= T F Init=T NMatP=  1 IDeriv=0 Min/MaxMlt=  0  4
 Nuclear    moments (au):
         65.00000000          0.00000000         -0.00000000         -0.00000000
        871.56259512        295.76173132          3.18266651          0.00000000
         -0.00000000          0.00000000         51.41755204          2.91415903
          2.40611829         35.56213599          5.66482303         74.92421710
         12.23243890          2.62553847         11.57914133         38.58450754
      19383.45169531       2484.02676632          3.11347222        -95.67697237
        187.57439571         82.62406252        -16.85849110         13.76338057
          4.89678628       3765.98210909         84.57868252         17.35038155
         76.17774786         19.25776442         22.51649212
 Total      moments (au):
          1.00000000          1.77735759          0.03447058          0.75216390
        -11.77629395        -25.74992456        -40.75621426          0.08642806
          4.43959180         -0.34200617         65.96755782          4.06475028
          3.09217512         20.78329614          0.11538343         30.39065298
         11.95067578          1.69967659          6.61748900         -0.29854169
      -1960.13655780       -882.87853223       -152.06938043        -43.50197458
        181.38812879         30.73946304         -7.39655014         18.49387864
          2.28688392       -491.28530592       -551.66832296       -223.39483090
         16.57784800         29.93099282          8.36701435
 Traceless Quadrup. (au):
         14.31785030          0.34421970        -14.66207000          0.08642806
          4.43959180         -0.34200617
 Charge=              1.0000 electrons
 Dipole moment (field-independent basis, Debye):
    X=              4.5176    Y=              0.0876    Z=              1.9118  Tot=              4.9063
 Quadrupole moment (field-independent basis, Debye-Ang):
   XX=            -15.8395   YY=            -34.6345   ZZ=            -54.8185
   XY=              0.1162   XZ=              5.9714   YZ=             -0.4600
 Traceless Quadrupole moment (field-independent basis, Debye-Ang):
   XX=             19.2580   YY=              0.4630   ZZ=            -19.7210
   XY=              0.1162   XZ=              5.9714   YZ=             -0.4600
 Octapole moment (field-independent basis, Debye-Ang**2):
  XXX=             46.9532  YYY=              2.8931  ZZZ=              2.2009  XYY=             14.7927
  XXY=              0.0821  XXZ=             21.6309  XZZ=              8.5060  YZZ=              1.2098
  YYZ=              4.7101  XYZ=             -0.2125
 Hexadecapole moment (field-independent basis, Debye-Ang**3):
 XXXX=           -738.2814 YYYY=           -332.5344 ZZZZ=            -57.2766 XXXY=            -16.3849
 XXXZ=             68.3195 YYYX=             11.5780 YYYZ=             -2.7859 ZZZX=              6.9657
 ZZZY=              0.8614 XXYY=           -185.0416 XXZZ=           -207.7847 YYZZ=            -84.1412
 XXYZ=              6.2440 YYXZ=             11.2734 ZZXY=              3.1514
 N-N= 4.122713010324D+02 E-N=-1.698011549920D+03  KE= 3.789041975417D+02
 Entering OneElI...
 OneElI was handed  6710863614 working-precision words.
 Calculate electrostatic properties
    NBasis =    99  MinDer = 0  MaxDer = 0
    NGrid  =    18  NMatD  =   1
 Requested accuracy = 0.1000D-12
 ShPair: Thresh= 1.00D-13 NBox=     0 BxSize= 0.00D+00 RnKept= 1.37D+01
         NSMCal=                 1035 NSMKep=                 931
 PrmmSu-InSpLW:  IPartL=    0 NPrtUS=   12 NPrtUL=    1 DoSpLW=F IThBeg=    0 IThEnd=   11 NThAct=   12.
 PrSmSu:  IncTry=   512 NBBP=          16758 NTPThr=   100 NPartT=   12 Incr=          13 LDynOK=F GPUOK=F.
 PrsmSu:  NPrtUS=  12 ThrOK=T IAlg=2 LenDen=           0 ISkipM=0 DoSpLW=F IThBeg=    0 IThEnd=   11.
 Prism:   IPart=     0 DynPar=F LinDyn=F Incr=          13.
 PRISM was handed   559196150 working-precision words and   931 shell-pairs
 PRISM was handed   559196150 working-precision words and   931 shell-pairs
 PRISM was handed   559196150 working-precision words and   931 shell-pairs
 PRISM was handed   559196150 working-precision words and   931 shell-pairs
 PRISM was handed   559196150 working-precision words and   931 shell-pairs
 PRISM was handed   559196150 working-precision words and   931 shell-pairs
 PRISM was handed   559196150 working-precision words and   931 shell-pairs
 PRISM was handed   559196150 working-precision words and   931 shell-pairs
 PRISM was handed   559196150 working-precision words and   931 shell-pairs
 PRISM was handed   559196150 working-precision words and   931 shell-pairs
 PRISM was handed   559196150 working-precision words and   931 shell-pairs
 PRISM was handed   559196150 working-precision words and   931 shell-pairs
 IPart=  0 NShTot=        1692 NBatch=          94 AvBLen=        18.0
 PrsmSu-ThDecC:  IPartSL=    0    0 NPrtUSL=   12    1 IThBeg=    0 IThEnd=   11 CPU=   -1 GPU=   -1 NThAct=   12.
 IPart= 11 NShTot=        1152 NBatch=          64 AvBLen=        18.0
 PrsmSu-ThDecC:  IPartSL=   11    0 NPrtUSL=   12    1 IThBeg=    0 IThEnd=   11 CPU=   -1 GPU=   -1 NThAct=   11.
 IPart=  8 NShTot=        1332 NBatch=          74 AvBLen=        18.0
 PrsmSu-ThDecC:  IPartSL=    8    0 NPrtUSL=   12    1 IThBeg=    0 IThEnd=   11 CPU=   -1 GPU=   -1 NThAct=   10.
 IPart=  4 NShTot=        1422 NBatch=          79 AvBLen=        18.0
 PrsmSu-ThDecC:  IPartSL=    4    0 NPrtUSL=   12    1 IThBeg=    0 IThEnd=   11 CPU=   -1 GPU=   -1 NThAct=    9.
 IPart=  5 NShTot=        1368 NBatch=          76 AvBLen=        18.0
 PrsmSu-ThDecC:  IPartSL=    5    0 NPrtUSL=   12    1 IThBeg=    0 IThEnd=   11 CPU=   -1 GPU=   -1 NThAct=    8.
 IPart= 10 NShTot=        1170 NBatch=          65 AvBLen=        18.0
 PrsmSu-ThDecC:  IPartSL=   10    0 NPrtUSL=   12    1 IThBeg=    0 IThEnd=   11 CPU=   -1 GPU=   -1 NThAct=    7.
 IPart=  1 NShTot=        1638 NBatch=          91 AvBLen=        18.0
 PrsmSu-ThDecC:  IPartSL=    1    0 NPrtUSL=   12    1 IThBeg=    0 IThEnd=   11 CPU=   -1 GPU=   -1 NThAct=    6.
 IPart=  2 NShTot=        1548 NBatch=          86 AvBLen=        18.0
 PrsmSu-ThDecC:  IPartSL=    2    0 NPrtUSL=   12    1 IThBeg=    0 IThEnd=   11 CPU=   -1 GPU=   -1 NThAct=    5.
 IPart=  3 NShTot=        1512 NBatch=          84 AvBLen=        18.0
 PrsmSu-ThDecC:  IPartSL=    3    0 NPrtUSL=   12    1 IThBeg=    0 IThEnd=   11 CPU=   -1 GPU=   -1 NThAct=    4.
 IPart=  6 NShTot=        1350 NBatch=          75 AvBLen=        18.0
 PrsmSu-ThDecC:  IPartSL=    6    0 NPrtUSL=   12    1 IThBeg=    0 IThEnd=   11 CPU=   -1 GPU=   -1 NThAct=    3.
 IPart=  7 NShTot=        1350 NBatch=          75 AvBLen=        18.0
 PrsmSu-ThDecC:  IPartSL=    7    0 NPrtUSL=   12    1 IThBeg=    0 IThEnd=   11 CPU=   -1 GPU=   -1 NThAct=    2.
 IPart=  9 NShTot=        1224 NBatch=          68 AvBLen=        18.0
 PrsmSu-ThDecC:  IPartSL=    9    0 NPrtUSL=   12    1 IThBeg=    0 IThEnd=   11 CPU=   -1 GPU=   -1 NThAct=    1.
 PrSmSu:  NxtVal=            157.
 --------------------------------------------------------
       Center         ----      EFG at Nuclei      ----
                      3XX-RR        3YY-RR        3ZZ-RR
 --------------------------------------------------------
     1   Atom       -0.112918      0.185111     -0.072193
     2   Atom        0.111731      0.108498     -0.220228
     3   Atom        0.065428      0.201154     -0.266583
     4   Atom        0.185439      0.169267     -0.354706
     5   Atom        0.103089      0.180341     -0.283430
     6   Atom        0.146749      0.090438     -0.237187
     7   Atom        0.309048      0.041627     -0.350675
     8   Atom       -0.343260     -0.303604      0.646863
     9   Atom        0.006150     -0.531732      0.525582
    10   Atom        0.066482     -0.242124      0.175642
    11   Atom        0.014819     -0.180947      0.166128
    12   Atom       -0.305476      0.142234      0.163243
    13   Atom        0.039422     -0.201432      0.162010
    14   Atom        0.009483     -0.188088      0.178605
    15   Atom       -0.351876      0.170593      0.181282
    16   Atom       -0.055501     -0.131062      0.186563
    17   Atom       -0.155618      0.161485     -0.005867
    18   Atom        0.042216     -0.245211      0.202995
 --------------------------------------------------------
                        XY            XZ            YZ
 --------------------------------------------------------
     1   Atom       -0.004818      0.033545      0.004281
     2   Atom       -0.016700     -0.019055     -0.007977
     3   Atom        0.018678     -0.002381     -0.022853
     4   Atom        0.005889     -0.010279     -0.008340
     5   Atom       -0.005489     -0.015831      0.002888
     6   Atom       -0.004003     -0.016737      0.018132
     7   Atom       -0.021831      0.080281      0.018904
     8   Atom        0.080108     -0.085516      0.187705
     9   Atom       -0.173533     -0.650242     -0.026431
    10   Atom        0.167761     -0.003437      0.004157
    11   Atom       -0.207634     -0.005428     -0.009417
    12   Atom        0.052989      0.000684      0.000539
    13   Atom        0.192013      0.022971     -0.042272
    14   Atom       -0.206648     -0.001108     -0.005202
    15   Atom       -0.001814     -0.157602      0.005710
    16   Atom       -0.253870      0.095862      0.130163
    17   Atom       -0.022797     -0.307906     -0.015931
    18   Atom        0.232238     -0.075421      0.081282
 --------------------------------------------------------


 ---------------------------------------------------------------------------------
              Nuclear Quadrupole Coupling Constant in Principal Axis System
 ---------------------------------------------------------------------------------

       Atom             a.u.   MegaHertz   Gauss  10(-4) cm-1        Axes

              Baa    -0.4382     2.105     0.751     0.702  0.7215 -0.6705  0.1729
     8 N(14)  Bbb    -0.2491     1.196     0.427     0.399  0.6891  0.7196 -0.0850
              Bcc     0.6873    -3.301    -1.178    -1.101 -0.0674  0.1804  0.9813
 
              Baa    -0.6511     3.127     1.116     1.043  0.5094  0.8067  0.2996
     9 N(14)  Bbb    -0.3188     1.531     0.546     0.511  0.6492 -0.5888  0.4815
              Bcc     0.9699    -4.658    -1.662    -1.554 -0.5649  0.0508  0.8236
 

 ---------------------------------------------------------------------------------

 No NMR shielding tensors so no spin-rotation constants.
 Leave Link  601 at Sat May  8 21:14:48 2021, MaxMem=  6710886400 cpu:               1.9 elap:               0.2
 FitSet:  NAtFit=    18 NAtPot=    18 NAtFrz=     0 MDM=    22 TotChg=   1.00000
 Merz-Kollman atomic radii used.
 Read replacement radii for each type of atom:
 Atom Element Radius
    1     6    1.50
    2     6    1.50
    3     6    1.50
    4     6    1.50
    5     6    1.50
    6     6    1.50
    7     6    1.50
    8     7    1.50
    9     7    1.50
   10     1    1.20
   11     1    1.20
   12     1    1.20
   13     1    1.20
   14     1    1.20
   15     1    1.20
   16     1    1.20
   17     1    1.20
   18     1    1.20
 Generate VDW surfaces: Layer= 4 Dens= 6 Start= 1.400 Inc= 0.200

 **********************************************************************

            Electrostatic Properties Using The SCF Density.

 **********************************************************************

       Atomic Center    1 is at   0.185441 -0.116090 -0.073201
       Atomic Center    2 is at  -0.608748 -1.255126 -0.035766
       Atomic Center    3 is at  -2.060126 -1.133597  0.121176
       Atomic Center    4 is at  -2.676977  0.109483  0.018405
       Atomic Center    5 is at  -1.852349  1.232575 -0.040599
       Atomic Center    6 is at  -0.446219  1.136339 -0.049207
       Atomic Center    7 is at   1.677816 -0.033229 -0.102502
       Atomic Center    8 is at   2.391415 -1.186763 -0.079883
       Atomic Center    9 is at   2.382196  1.180000  0.057724
       Atomic Center   10 is at  -0.183925 -2.254567 -0.021359
       Atomic Center   11 is at  -2.644990 -2.048002  0.081190
       Atomic Center   12 is at  -3.754677  0.239956  0.018127
       Atomic Center   13 is at  -2.392766  2.166474  0.084472
       Atomic Center   14 is at   0.101983  2.073931 -0.039622
       Atomic Center   15 is at   3.361998 -1.174411  0.206740
       Atomic Center   16 is at   1.727680 -1.891139  0.214756
       Atomic Center   17 is at   3.163714  1.243987  0.697990
       Atomic Center   18 is at   1.892687  2.048998 -0.117016
      ESP Fit Center   19 is at   0.185441 -0.116090  2.026799
      ESP Fit Center   20 is at   0.595130 -0.116090  1.986448
      ESP Fit Center   21 is at   0.390286  0.238712  1.986448
      ESP Fit Center   22 is at  -0.019404  0.238712  1.986448
      ESP Fit Center   23 is at  -0.224249 -0.116090  1.986448
      ESP Fit Center   24 is at  -0.019404 -0.470892  1.986448
      ESP Fit Center   25 is at   0.390286 -0.470892  1.986448
      ESP Fit Center   26 is at   0.881409  0.285728  1.866946
      ESP Fit Center   27 is at   0.587258  0.579879  1.866946
      ESP Fit Center   28 is at  -0.618195 -0.116090  1.866946
      ESP Fit Center   29 is at   0.587258 -0.812058  1.866946
      ESP Fit Center   30 is at   0.881409 -0.517908  1.866946
      ESP Fit Center   31 is at   0.705483 -1.160475  1.672885
      ESP Fit Center   32 is at   0.705483  0.928295 -1.819287
      ESP Fit Center   33 is at  -0.961392  0.098290 -1.819287
      ESP Fit Center   34 is at   0.705483 -1.160475 -1.819287
      ESP Fit Center   35 is at   0.587258  0.579879 -2.013348
      ESP Fit Center   36 is at   0.185441  0.687545 -2.013348
      ESP Fit Center   37 is at  -0.510528  0.285728 -2.013348
      ESP Fit Center   38 is at  -0.618195 -0.116090 -2.013348
      ESP Fit Center   39 is at  -0.510528 -0.517908 -2.013348
      ESP Fit Center   40 is at   0.185441 -0.919725 -2.013348
      ESP Fit Center   41 is at   0.587258 -0.812058 -2.013348
      ESP Fit Center   42 is at   0.881409 -0.517908 -2.013348
      ESP Fit Center   43 is at   0.595130 -0.116090 -2.132850
      ESP Fit Center   44 is at   0.390286  0.238712 -2.132850
      ESP Fit Center   45 is at  -0.019404  0.238712 -2.132850
      ESP Fit Center   46 is at  -0.224249 -0.116090 -2.132850
      ESP Fit Center   47 is at  -0.019404 -0.470892 -2.132850
      ESP Fit Center   48 is at   0.390286 -0.470892 -2.132850
      ESP Fit Center   49 is at   0.185441 -0.116090 -2.173201
      ESP Fit Center   50 is at  -0.608748 -1.255126  2.064234
      ESP Fit Center   51 is at  -0.199058 -1.255126  2.023883
      ESP Fit Center   52 is at  -0.403903 -0.900325  2.023883
      ESP Fit Center   53 is at  -0.813593 -0.900325  2.023883
      ESP Fit Center   54 is at  -1.018438 -1.255126  2.023883
      ESP Fit Center   55 is at  -0.813593 -1.609928  2.023883
      ESP Fit Center   56 is at  -0.403903 -1.609928  2.023883
      ESP Fit Center   57 is at   0.194887 -1.255126  1.904381
      ESP Fit Center   58 is at   0.087221 -0.853309  1.904381
      ESP Fit Center   59 is at  -0.608748 -0.451491  1.904381
      ESP Fit Center   60 is at  -1.010565 -0.559158  1.904381
      ESP Fit Center   61 is at  -1.010565 -1.951095  1.904381
      ESP Fit Center   62 is at  -0.608748 -2.058762  1.904381
      ESP Fit Center   63 is at  -0.206930 -1.951095  1.904381
      ESP Fit Center   64 is at   0.087221 -1.656944  1.904381
      ESP Fit Center   65 is at   0.557950 -1.255126  1.710320
      ESP Fit Center   66 is at  -0.928030 -0.132967  1.710320
      ESP Fit Center   67 is at  -0.928030 -2.377286  1.710320
      ESP Fit Center   68 is at  -0.501099 -2.416847  1.710320
      ESP Fit Center   69 is at  -0.088706 -2.299511  1.710320
      ESP Fit Center   70 is at   0.253452 -2.041125  1.710320
      ESP Fit Center   71 is at   0.479165 -1.676586  1.710320
      ESP Fit Center   72 is at  -1.225608 -2.605861  1.449158
      ESP Fit Center   73 is at  -1.227919 -2.887745 -1.202464
      ESP Fit Center   74 is at  -1.581166 -2.377357 -1.520691
      ESP Fit Center   75 is at  -1.225608 -2.605861 -1.520691
      ESP Fit Center   76 is at  -0.820075 -2.724936 -1.520691
      ESP Fit Center   77 is at   0.640450 -2.057937 -1.520691
      ESP Fit Center   78 is at   0.816027 -1.673478 -1.520691
      ESP Fit Center   79 is at  -1.311840 -0.324082 -1.781853
      ESP Fit Center   80 is at  -1.311840 -2.186171 -1.781853
      ESP Fit Center   81 is at  -0.928030 -2.377286 -1.781853
      ESP Fit Center   82 is at  -0.501099 -2.416847 -1.781853
      ESP Fit Center   83 is at  -0.088706 -2.299511 -1.781853
      ESP Fit Center   84 is at   0.253452 -2.041125 -1.781853
      ESP Fit Center   85 is at   0.479165 -1.676586 -1.781853
      ESP Fit Center   86 is at   0.194887 -1.255126 -1.975913
      ESP Fit Center   87 is at  -1.010565 -0.559158 -1.975913
      ESP Fit Center   88 is at  -1.304716 -0.853309 -1.975913
      ESP Fit Center   89 is at  -1.412383 -1.255126 -1.975913
      ESP Fit Center   90 is at  -1.304716 -1.656944 -1.975913
      ESP Fit Center   91 is at  -1.010565 -1.951095 -1.975913
      ESP Fit Center   92 is at  -0.608748 -2.058762 -1.975913
      ESP Fit Center   93 is at  -0.206930 -1.951095 -1.975913
      ESP Fit Center   94 is at   0.087221 -1.656944 -1.975913
      ESP Fit Center   95 is at  -0.199058 -1.255126 -2.095416
      ESP Fit Center   96 is at  -0.403903 -0.900325 -2.095416
      ESP Fit Center   97 is at  -0.813593 -0.900325 -2.095416
      ESP Fit Center   98 is at  -1.018438 -1.255126 -2.095416
      ESP Fit Center   99 is at  -0.813593 -1.609928 -2.095416
      ESP Fit Center  100 is at  -0.403903 -1.609928 -2.095416
      ESP Fit Center  101 is at  -0.608748 -1.255126 -2.135766
      ESP Fit Center  102 is at  -2.060126 -1.133597  2.221176
      ESP Fit Center  103 is at  -1.650436 -1.133597  2.180825
      ESP Fit Center  104 is at  -1.855281 -0.778796  2.180825
      ESP Fit Center  105 is at  -2.264971 -0.778796  2.180825
      ESP Fit Center  106 is at  -2.469816 -1.133597  2.180825
      ESP Fit Center  107 is at  -2.264971 -1.488399  2.180825
      ESP Fit Center  108 is at  -1.855281 -1.488399  2.180825
      ESP Fit Center  109 is at  -1.256491 -1.133597  2.061323
      ESP Fit Center  110 is at  -1.364158 -0.731780  2.061323
      ESP Fit Center  111 is at  -1.658308 -0.437629  2.061323
      ESP Fit Center  112 is at  -2.060126 -0.329962  2.061323
      ESP Fit Center  113 is at  -2.461944 -0.437629  2.061323
      ESP Fit Center  114 is at  -2.756095 -0.731780  2.061323
      ESP Fit Center  115 is at  -2.863761 -1.133597  2.061323
      ESP Fit Center  116 is at  -2.756095 -1.535415  2.061323
      ESP Fit Center  117 is at  -2.461944 -1.829566  2.061323
      ESP Fit Center  118 is at  -2.060126 -1.937233  2.061323
      ESP Fit Center  119 is at  -1.658308 -1.829566  2.061323
      ESP Fit Center  120 is at  -1.364158 -1.535415  2.061323
      ESP Fit Center  121 is at  -1.197926 -0.347598  1.867262
      ESP Fit Center  122 is at  -1.540084 -0.089213  1.867262
      ESP Fit Center  123 is at  -3.206958 -0.919217  1.867262
      ESP Fit Center  124 is at  -3.206958 -1.347978  1.867262
      ESP Fit Center  125 is at  -3.052072 -1.747785  1.867262
      ESP Fit Center  126 is at  -2.763218 -2.064642  1.867262
      ESP Fit Center  127 is at  -2.379408 -2.255757  1.867262
      ESP Fit Center  128 is at  -1.952477 -2.295318  1.867262
      ESP Fit Center  129 is at  -1.540084 -2.177982  1.867262
      ESP Fit Center  130 is at  -1.197926 -1.919596  1.867262
      ESP Fit Center  131 is at  -1.087707 -0.011367  1.606100
      ESP Fit Center  132 is at  -3.545050 -1.133597  1.606100
      ESP Fit Center  133 is at  -3.484900 -1.551949  1.606100
      ESP Fit Center  134 is at  -1.848799 -2.603407  1.606100
      ESP Fit Center  135 is at  -1.443266 -2.484332  1.606100
      ESP Fit Center  136 is at  -3.806212 -1.133597  1.287873
      ESP Fit Center  137 is at  -3.755474 -1.551463  1.287873
      ESP Fit Center  138 is at  -1.440955 -2.766216  1.287873
      ESP Fit Center  139 is at  -3.988900 -1.343364  0.924811
      ESP Fit Center  140 is at  -1.541082 -3.003026  0.924811
      ESP Fit Center  141 is at  -4.109208 -1.341969  0.530866
      ESP Fit Center  142 is at  -3.484900 -1.551949 -1.363748
      ESP Fit Center  143 is at  -1.848799 -2.603407 -1.363748
      ESP Fit Center  144 is at  -3.206958 -1.347978 -1.624910
      ESP Fit Center  145 is at  -3.052072 -1.747785 -1.624910
      ESP Fit Center  146 is at  -2.763218 -2.064642 -1.624910
      ESP Fit Center  147 is at  -2.379408 -2.255757 -1.624910
      ESP Fit Center  148 is at  -1.952477 -2.295318 -1.624910
      ESP Fit Center  149 is at  -1.658308 -0.437629 -1.818971
      ESP Fit Center  150 is at  -2.863761 -1.133597 -1.818971
      ESP Fit Center  151 is at  -2.756095 -1.535415 -1.818971
      ESP Fit Center  152 is at  -2.461944 -1.829566 -1.818971
      ESP Fit Center  153 is at  -2.060126 -1.937233 -1.818971
      ESP Fit Center  154 is at  -1.658308 -1.829566 -1.818971
      ESP Fit Center  155 is at  -1.650436 -1.133597 -1.938473
      ESP Fit Center  156 is at  -1.855281 -0.778796 -1.938473
      ESP Fit Center  157 is at  -2.264971 -0.778796 -1.938473
      ESP Fit Center  158 is at  -2.469816 -1.133597 -1.938473
      ESP Fit Center  159 is at  -2.264971 -1.488399 -1.938473
      ESP Fit Center  160 is at  -1.855281 -1.488399 -1.938473
      ESP Fit Center  161 is at  -2.060126 -1.133597 -1.978824
      ESP Fit Center  162 is at  -2.676977  0.109483  2.118405
      ESP Fit Center  163 is at  -2.267287  0.109483  2.078054
      ESP Fit Center  164 is at  -2.472132  0.464284  2.078054
      ESP Fit Center  165 is at  -2.881822  0.464284  2.078054
      ESP Fit Center  166 is at  -3.086667  0.109483  2.078054
      ESP Fit Center  167 is at  -2.881822 -0.245319  2.078054
      ESP Fit Center  168 is at  -2.472132 -0.245319  2.078054
      ESP Fit Center  169 is at  -1.873342  0.109483  1.958552
      ESP Fit Center  170 is at  -1.981008  0.511300  1.958552
      ESP Fit Center  171 is at  -2.676977  0.913118  1.958552
      ESP Fit Center  172 is at  -3.078794  0.805451  1.958552
      ESP Fit Center  173 is at  -3.372945  0.511300  1.958552
      ESP Fit Center  174 is at  -3.480612  0.109483  1.958552
      ESP Fit Center  175 is at  -3.372945 -0.292335  1.958552
      ESP Fit Center  176 is at  -3.078794 -0.586486  1.958552
      ESP Fit Center  177 is at  -1.510279  0.109483  1.764491
      ESP Fit Center  178 is at  -2.996259  1.231642  1.764491
      ESP Fit Center  179 is at  -3.380069  1.040527  1.764491
      ESP Fit Center  180 is at  -3.668923  0.723670  1.764491
      ESP Fit Center  181 is at  -3.823809  0.323863  1.764491
      ESP Fit Center  182 is at  -3.823809 -0.104897  1.764491
      ESP Fit Center  183 is at  -3.668923 -0.504704  1.764491
      ESP Fit Center  184 is at  -3.380069 -0.821562  1.764491
      ESP Fit Center  185 is at  -3.293837  1.460217  1.503329
      ESP Fit Center  186 is at  -3.649395  1.231714  1.503329
      ESP Fit Center  187 is at  -3.926175 -0.693328  1.503329
      ESP Fit Center  188 is at  -3.649395 -1.012748  1.503329
      ESP Fit Center  189 is at  -3.668867  1.546483  1.185102
      ESP Fit Center  190 is at  -3.983941 -1.048387  1.185102
      ESP Fit Center  191 is at  -4.085515 -1.224755  0.822040
      ESP Fit Center  192 is at  -4.085515 -1.224755 -0.785231
      ESP Fit Center  193 is at  -3.668867  1.546483 -1.148293
      ESP Fit Center  194 is at  -3.983941 -1.048387 -1.148293
      ESP Fit Center  195 is at  -3.649395  1.231714 -1.466520
      ESP Fit Center  196 is at  -3.926175 -0.693328 -1.466520
      ESP Fit Center  197 is at  -3.649395 -1.012748 -1.466520
      ESP Fit Center  198 is at  -3.380069  1.040527 -1.727682
      ESP Fit Center  199 is at  -3.668923  0.723670 -1.727682
      ESP Fit Center  200 is at  -3.823809  0.323863 -1.727682
      ESP Fit Center  201 is at  -3.823809 -0.104897 -1.727682
      ESP Fit Center  202 is at  -3.668923 -0.504704 -1.727682
      ESP Fit Center  203 is at  -3.380069 -0.821562 -1.727682
      ESP Fit Center  204 is at  -1.873342  0.109483 -1.921742
      ESP Fit Center  205 is at  -3.078794  0.805451 -1.921742
      ESP Fit Center  206 is at  -3.372945  0.511300 -1.921742
      ESP Fit Center  207 is at  -3.480612  0.109483 -1.921742
      ESP Fit Center  208 is at  -3.372945 -0.292335 -1.921742
      ESP Fit Center  209 is at  -3.078794 -0.586486 -1.921742
      ESP Fit Center  210 is at  -2.676977 -0.694153 -1.921742
      ESP Fit Center  211 is at  -2.275159 -0.586486 -1.921742
      ESP Fit Center  212 is at  -1.981008 -0.292335 -1.921742
      ESP Fit Center  213 is at  -2.267287  0.109483 -2.041245
      ESP Fit Center  214 is at  -2.472132  0.464284 -2.041245
      ESP Fit Center  215 is at  -2.881822  0.464284 -2.041245
      ESP Fit Center  216 is at  -3.086667  0.109483 -2.041245
      ESP Fit Center  217 is at  -2.881822 -0.245319 -2.041245
      ESP Fit Center  218 is at  -2.472132 -0.245319 -2.041245
      ESP Fit Center  219 is at  -2.676977  0.109483 -2.081595
      ESP Fit Center  220 is at  -1.852349  1.232575  2.059401
      ESP Fit Center  221 is at  -1.442659  1.232575  2.019050
      ESP Fit Center  222 is at  -1.647504  1.587377  2.019050
      ESP Fit Center  223 is at  -2.057194  1.587377  2.019050
      ESP Fit Center  224 is at  -2.262039  1.232575  2.019050
      ESP Fit Center  225 is at  -2.057194  0.877773  2.019050
      ESP Fit Center  226 is at  -1.647504  0.877773  2.019050
      ESP Fit Center  227 is at  -1.156380  1.634393  1.899548
      ESP Fit Center  228 is at  -1.450531  1.928543  1.899548
      ESP Fit Center  229 is at  -1.852349  2.036210  1.899548
      ESP Fit Center  230 is at  -2.254166  1.928543  1.899548
      ESP Fit Center  231 is at  -2.548317  1.634393  1.899548
      ESP Fit Center  232 is at  -2.655984  1.232575  1.899548
      ESP Fit Center  233 is at  -1.450531  0.536606  1.899548
      ESP Fit Center  234 is at  -1.332307  2.276960  1.705487
      ESP Fit Center  235 is at  -1.744700  2.394295  1.705487
      ESP Fit Center  236 is at  -2.844295  1.846762  1.705487
      ESP Fit Center  237 is at  -2.999181  1.446955  1.705487
      ESP Fit Center  238 is at  -1.332307  0.188190  1.705487
      ESP Fit Center  239 is at  -1.235489  2.583310  1.444326
      ESP Fit Center  240 is at  -3.277123  1.650926  1.444326
      ESP Fit Center  241 is at  -1.233178  2.865194  1.126099
      ESP Fit Center  242 is at  -1.137022  3.164015 -0.450288
      ESP Fit Center  243 is at  -1.333305  3.102004 -0.844234
      ESP Fit Center  244 is at  -1.233178  2.865194 -1.207296
      ESP Fit Center  245 is at  -1.641881  2.965930 -1.207296
      ESP Fit Center  246 is at  -3.547697  1.650441 -1.207296
      ESP Fit Center  247 is at  -1.235489  2.583310 -1.525523
      ESP Fit Center  248 is at  -1.641022  2.702385 -1.525523
      ESP Fit Center  249 is at  -2.063676  2.702385 -1.525523
      ESP Fit Center  250 is at  -3.101547  2.035386 -1.525523
      ESP Fit Center  251 is at  -3.277123  1.650926 -1.525523
      ESP Fit Center  252 is at  -1.332307  2.276960 -1.786685
      ESP Fit Center  253 is at  -1.744700  2.394295 -1.786685
      ESP Fit Center  254 is at  -2.171631  2.354734 -1.786685
      ESP Fit Center  255 is at  -2.555441  2.163620 -1.786685
      ESP Fit Center  256 is at  -2.844295  1.846762 -1.786685
      ESP Fit Center  257 is at  -2.999181  1.446955 -1.786685
      ESP Fit Center  258 is at  -1.332307  0.188190 -1.786685
      ESP Fit Center  259 is at  -1.156380  1.634393 -1.980746
      ESP Fit Center  260 is at  -1.450531  1.928543 -1.980746
      ESP Fit Center  261 is at  -1.852349  2.036210 -1.980746
      ESP Fit Center  262 is at  -2.254166  1.928543 -1.980746
      ESP Fit Center  263 is at  -2.548317  1.634393 -1.980746
      ESP Fit Center  264 is at  -2.655984  1.232575 -1.980746
      ESP Fit Center  265 is at  -2.548317  0.830757 -1.980746
      ESP Fit Center  266 is at  -1.852349  0.428940 -1.980746
      ESP Fit Center  267 is at  -1.450531  0.536606 -1.980746
      ESP Fit Center  268 is at  -1.442659  1.232575 -2.100248
      ESP Fit Center  269 is at  -1.647504  1.587377 -2.100248
      ESP Fit Center  270 is at  -2.057194  1.587377 -2.100248
      ESP Fit Center  271 is at  -2.262039  1.232575 -2.100248
      ESP Fit Center  272 is at  -2.057194  0.877773 -2.100248
      ESP Fit Center  273 is at  -1.647504  0.877773 -2.100248
      ESP Fit Center  274 is at  -1.852349  1.232575 -2.140599
      ESP Fit Center  275 is at  -0.446219  1.136339  2.050793
      ESP Fit Center  276 is at  -0.036529  1.136339  2.010442
      ESP Fit Center  277 is at  -0.241374  1.491140  2.010442
      ESP Fit Center  278 is at  -0.651064  1.491140  2.010442
      ESP Fit Center  279 is at  -0.855909  1.136339  2.010442
      ESP Fit Center  280 is at  -0.651064  0.781537  2.010442
      ESP Fit Center  281 is at  -0.241374  0.781537  2.010442
      ESP Fit Center  282 is at   0.357416  1.136339  1.890940
      ESP Fit Center  283 is at   0.249750  1.538156  1.890940
      ESP Fit Center  284 is at  -0.044401  1.832307  1.890940
      ESP Fit Center  285 is at  -0.446219  1.939974  1.890940
      ESP Fit Center  286 is at  -0.848036  1.832307  1.890940
      ESP Fit Center  287 is at  -1.142187  0.734521  1.890940
      ESP Fit Center  288 is at  -0.848036  0.440370  1.890940
      ESP Fit Center  289 is at  -0.446219  0.332704  1.890940
      ESP Fit Center  290 is at   0.249750  0.734521  1.890940
      ESP Fit Center  291 is at   0.720479  1.136339  1.696879
      ESP Fit Center  292 is at   0.641694  1.557798  1.696879
      ESP Fit Center  293 is at   0.415981  1.922338  1.696879
      ESP Fit Center  294 is at   0.073823  2.180723  1.696879
      ESP Fit Center  295 is at  -0.338570  2.298059  1.696879
      ESP Fit Center  296 is at  -0.765501  2.258498  1.696879
      ESP Fit Center  297 is at  -1.149311  0.205294  1.696879
      ESP Fit Center  298 is at  -0.657546  2.606149  1.435717
      ESP Fit Center  299 is at   0.978555  1.554690 -1.534132
      ESP Fit Center  300 is at  -0.657546  2.606149 -1.534132
      ESP Fit Center  301 is at  -1.063079  2.487073 -1.534132
      ESP Fit Center  302 is at   0.720479  1.136339 -1.795294
      ESP Fit Center  303 is at   0.641694  1.557798 -1.795294
      ESP Fit Center  304 is at   0.415981  1.922338 -1.795294
      ESP Fit Center  305 is at   0.073823  2.180723 -1.795294
      ESP Fit Center  306 is at  -0.338570  2.298059 -1.795294
      ESP Fit Center  307 is at  -0.765501  2.258498 -1.795294
      ESP Fit Center  308 is at  -1.149311  0.205294 -1.795294
      ESP Fit Center  309 is at   0.357416  1.136339 -1.989354
      ESP Fit Center  310 is at   0.249750  1.538156 -1.989354
      ESP Fit Center  311 is at  -0.044401  1.832307 -1.989354
      ESP Fit Center  312 is at  -0.446219  1.939974 -1.989354
      ESP Fit Center  313 is at  -0.848036  1.832307 -1.989354
      ESP Fit Center  314 is at  -1.142187  0.734521 -1.989354
      ESP Fit Center  315 is at  -0.848036  0.440370 -1.989354
      ESP Fit Center  316 is at  -0.036529  1.136339 -2.108856
      ESP Fit Center  317 is at  -0.241374  1.491140 -2.108856
      ESP Fit Center  318 is at  -0.651064  1.491140 -2.108856
      ESP Fit Center  319 is at  -0.855909  1.136339 -2.108856
      ESP Fit Center  320 is at  -0.651064  0.781537 -2.108856
      ESP Fit Center  321 is at  -0.241374  0.781537 -2.108856
      ESP Fit Center  322 is at  -0.446219  1.136339 -2.149207
      ESP Fit Center  323 is at   1.677816 -0.033229  1.997498
      ESP Fit Center  324 is at   2.087505 -0.033229  1.957147
      ESP Fit Center  325 is at   1.882660  0.321572  1.957147
      ESP Fit Center  326 is at   1.472971  0.321572  1.957147
      ESP Fit Center  327 is at   1.268126 -0.033229  1.957147
      ESP Fit Center  328 is at   1.472971 -0.388031  1.957147
      ESP Fit Center  329 is at   1.882660 -0.388031  1.957147
      ESP Fit Center  330 is at   2.481451 -0.033229  1.837645
      ESP Fit Center  331 is at   1.275998  0.662739  1.837645
      ESP Fit Center  332 is at   0.981847  0.368588  1.837645
      ESP Fit Center  333 is at   1.275998 -0.729198  1.837645
      ESP Fit Center  334 is at   0.974723  0.897815  1.643584
      ESP Fit Center  335 is at   1.060956  1.317505 -1.587426
      ESP Fit Center  336 is at   2.844513 -0.033229 -1.848588
      ESP Fit Center  337 is at   1.358534  1.088930 -1.848588
      ESP Fit Center  338 is at   0.974723  0.897815 -1.848588
      ESP Fit Center  339 is at   0.974723 -0.964274 -1.848588
      ESP Fit Center  340 is at   2.481451 -0.033229 -2.042649
      ESP Fit Center  341 is at   2.373784  0.368588 -2.042649
      ESP Fit Center  342 is at   2.079633  0.662739 -2.042649
      ESP Fit Center  343 is at   1.677816  0.770406 -2.042649
      ESP Fit Center  344 is at   1.275998  0.662739 -2.042649
      ESP Fit Center  345 is at   0.981847  0.368588 -2.042649
      ESP Fit Center  346 is at   0.981847 -0.435047 -2.042649
      ESP Fit Center  347 is at   1.275998 -0.729198 -2.042649
      ESP Fit Center  348 is at   1.677816 -0.836865 -2.042649
      ESP Fit Center  349 is at   2.373784 -0.435047 -2.042649
      ESP Fit Center  350 is at   2.087505 -0.033229 -2.162151
      ESP Fit Center  351 is at   1.882660  0.321572 -2.162151
      ESP Fit Center  352 is at   1.472971  0.321572 -2.162151
      ESP Fit Center  353 is at   1.268126 -0.033229 -2.162151
      ESP Fit Center  354 is at   1.472971 -0.388031 -2.162151
      ESP Fit Center  355 is at   1.882660 -0.388031 -2.162151
      ESP Fit Center  356 is at   1.677816 -0.033229 -2.202502
      ESP Fit Center  357 is at   2.391415 -1.186763  2.020117
      ESP Fit Center  358 is at   2.801104 -1.186763  1.979766
      ESP Fit Center  359 is at   2.596259 -0.831962  1.979766
      ESP Fit Center  360 is at   2.186570 -0.831962  1.979766
      ESP Fit Center  361 is at   1.981725 -1.186763  1.979766
      ESP Fit Center  362 is at   2.186570 -1.541565  1.979766
      ESP Fit Center  363 is at   2.596259 -1.541565  1.979766
      ESP Fit Center  364 is at   3.087383 -0.784946  1.860264
      ESP Fit Center  365 is at   2.793232 -0.490795  1.860264
      ESP Fit Center  366 is at   2.391415 -0.383128  1.860264
      ESP Fit Center  367 is at   1.695446 -0.784946  1.860264
      ESP Fit Center  368 is at   1.587779 -1.186763  1.860264
      ESP Fit Center  369 is at   2.391415 -1.990399  1.860264
      ESP Fit Center  370 is at   2.793232 -1.882732  1.860264
      ESP Fit Center  371 is at   3.087383 -1.588581  1.860264
      ESP Fit Center  372 is at   2.911456 -0.142379  1.666204
      ESP Fit Center  373 is at   2.499064 -2.348484  1.666204
      ESP Fit Center  374 is at   2.911456 -2.231148  1.666204
      ESP Fit Center  375 is at   3.008274 -2.537498  1.405042
      ESP Fit Center  376 is at   3.010585 -2.819382  1.086815
      ESP Fit Center  377 is at   3.383305 -2.623764  1.086815
      ESP Fit Center  378 is at   2.910459 -3.056192  0.723753
      ESP Fit Center  379 is at   3.300196 -2.900907  0.723753
      ESP Fit Center  380 is at   3.106741 -3.118204  0.329807
      ESP Fit Center  381 is at   3.480895 -2.934673  0.329807
      ESP Fit Center  382 is at   2.801104 -3.246412 -0.079883
      ESP Fit Center  383 is at   3.195050 -3.126910 -0.079883
      ESP Fit Center  384 is at   3.558112 -2.932850 -0.079883
      ESP Fit Center  385 is at   2.703303 -3.222661 -0.489572
      ESP Fit Center  386 is at   3.106741 -3.118204 -0.489572
      ESP Fit Center  387 is at   3.480895 -2.934673 -0.489572
      ESP Fit Center  388 is at   3.810445 -2.679582 -0.489572
      ESP Fit Center  389 is at   3.935952 -0.012636 -0.883518
      ESP Fit Center  390 is at   2.496452 -3.124065 -0.883518
      ESP Fit Center  391 is at   2.910459 -3.056192 -0.883518
      ESP Fit Center  392 is at   3.300196 -2.900907 -0.883518
      ESP Fit Center  393 is at   3.647439 -2.665470 -0.883518
      ESP Fit Center  394 is at   3.935952 -2.360890 -0.883518
      ESP Fit Center  395 is at   3.937497 -0.375317 -1.246580
      ESP Fit Center  396 is at   3.698379 -0.028894 -1.246580
      ESP Fit Center  397 is at   1.772244 -2.819382 -1.246580
      ESP Fit Center  398 is at   2.180947 -2.920119 -1.246580
      ESP Fit Center  399 is at   2.601882 -2.920119 -1.246580
      ESP Fit Center  400 is at   3.010585 -2.819382 -1.246580
      ESP Fit Center  401 is at   3.383305 -2.623764 -1.246580
      ESP Fit Center  402 is at   3.698379 -2.344633 -1.246580
      ESP Fit Center  403 is at   3.937497 -1.998210 -1.246580
      ESP Fit Center  404 is at   4.086763 -1.604629 -1.246580
      ESP Fit Center  405 is at   3.876339 -1.186763 -1.564807
      ESP Fit Center  406 is at   3.816189 -0.768412 -1.564807
      ESP Fit Center  407 is at   3.640612 -0.383953 -1.564807
      ESP Fit Center  408 is at   3.363833 -0.064533 -1.564807
      ESP Fit Center  409 is at   0.966640 -1.605115 -1.564807
      ESP Fit Center  410 is at   1.142217 -1.989574 -1.564807
      ESP Fit Center  411 is at   1.418996 -2.308994 -1.564807
      ESP Fit Center  412 is at   1.774555 -2.537498 -1.564807
      ESP Fit Center  413 is at   2.180088 -2.656573 -1.564807
      ESP Fit Center  414 is at   2.602741 -2.656573 -1.564807
      ESP Fit Center  415 is at   3.008274 -2.537498 -1.564807
      ESP Fit Center  416 is at   3.363833 -2.308994 -1.564807
      ESP Fit Center  417 is at   3.640612 -1.989574 -1.564807
      ESP Fit Center  418 is at   3.816189 -1.605115 -1.564807
      ESP Fit Center  419 is at   3.558112 -1.186763 -1.825969
      ESP Fit Center  420 is at   3.479328 -0.765304 -1.825969
      ESP Fit Center  421 is at   3.253614 -0.400764 -1.825969
      ESP Fit Center  422 is at   2.911456 -0.142379 -1.825969
      ESP Fit Center  423 is at   1.244582 -1.401144 -1.825969
      ESP Fit Center  424 is at   1.399468 -1.800950 -1.825969
      ESP Fit Center  425 is at   1.688322 -2.117808 -1.825969
      ESP Fit Center  426 is at   2.072133 -2.308923 -1.825969
      ESP Fit Center  427 is at   2.499064 -2.348484 -1.825969
      ESP Fit Center  428 is at   2.911456 -2.231148 -1.825969
      ESP Fit Center  429 is at   3.253614 -1.972762 -1.825969
      ESP Fit Center  430 is at   3.479328 -1.608223 -1.825969
      ESP Fit Center  431 is at   3.195050 -1.186763 -2.020030
      ESP Fit Center  432 is at   3.087383 -0.784946 -2.020030
      ESP Fit Center  433 is at   2.793232 -0.490795 -2.020030
      ESP Fit Center  434 is at   1.587779 -1.186763 -2.020030
      ESP Fit Center  435 is at   1.695446 -1.588581 -2.020030
      ESP Fit Center  436 is at   1.989597 -1.882732 -2.020030
      ESP Fit Center  437 is at   2.391415 -1.990399 -2.020030
      ESP Fit Center  438 is at   2.793232 -1.882732 -2.020030
      ESP Fit Center  439 is at   3.087383 -1.588581 -2.020030
      ESP Fit Center  440 is at   2.801104 -1.186763 -2.139532
      ESP Fit Center  441 is at   2.596259 -0.831962 -2.139532
      ESP Fit Center  442 is at   2.186570 -0.831962 -2.139532
      ESP Fit Center  443 is at   1.981725 -1.186763 -2.139532
      ESP Fit Center  444 is at   2.186570 -1.541565 -2.139532
      ESP Fit Center  445 is at   2.596259 -1.541565 -2.139532
      ESP Fit Center  446 is at   2.391415 -1.186763 -2.179883
      ESP Fit Center  447 is at   2.177351  1.534802  2.117373
      ESP Fit Center  448 is at   1.972506  1.180000  2.117373
      ESP Fit Center  449 is at   2.177351  0.825198  2.117373
      ESP Fit Center  450 is at   2.382196  1.983635  1.997871
      ESP Fit Center  451 is at   1.980378  1.875968  1.997871
      ESP Fit Center  452 is at   1.686227  1.581817  1.997871
      ESP Fit Center  453 is at   1.578560  1.180000  1.997871
      ESP Fit Center  454 is at   1.686227  0.778182  1.997871
      ESP Fit Center  455 is at   1.980378  0.484031  1.997871
      ESP Fit Center  456 is at   2.382196  0.376365  1.997871
      ESP Fit Center  457 is at   2.489845  2.341720  1.803811
      ESP Fit Center  458 is at   2.062914  2.302159  1.803811
      ESP Fit Center  459 is at   1.679103  2.111045  1.803811
      ESP Fit Center  460 is at   1.390249  1.794187  1.803811
      ESP Fit Center  461 is at   1.235363  1.394380  1.803811
      ESP Fit Center  462 is at   1.235363  0.965620  1.803811
      ESP Fit Center  463 is at   2.593522  2.649810  1.542649
      ESP Fit Center  464 is at   2.170869  2.649810  1.542649
      ESP Fit Center  465 is at   1.765336  2.530734  1.542649
      ESP Fit Center  466 is at   1.409777  2.302231  1.542649
      ESP Fit Center  467 is at   1.132998  1.982811  1.542649
      ESP Fit Center  468 is at   0.957421  1.598351  1.542649
      ESP Fit Center  469 is at   2.592663  2.913355  1.224422
      ESP Fit Center  470 is at   2.901240  3.049428  0.861360
      ESP Fit Center  471 is at   3.471676  2.927909  0.467414
      ESP Fit Center  472 is at   3.097523  3.111440  0.467414
      ESP Fit Center  473 is at   3.867120  2.664924  0.057724
      ESP Fit Center  474 is at   3.548893  2.926086  0.057724
      ESP Fit Center  475 is at   3.185831  3.120147  0.057724
      ESP Fit Center  476 is at   4.274926  1.992235 -0.351965
      ESP Fit Center  477 is at   4.072680  2.356612 -0.351965
      ESP Fit Center  478 is at   3.801226  2.672819 -0.351965
      ESP Fit Center  479 is at   3.471676  2.927909 -0.351965
      ESP Fit Center  480 is at   4.274926  0.367765 -0.351965
      ESP Fit Center  481 is at   4.399684  0.765396 -0.351965
      ESP Fit Center  482 is at   4.322343  1.180000 -0.745911
      ESP Fit Center  483 is at   4.276983  1.597074 -0.745911
      ESP Fit Center  484 is at   4.143025  1.994646 -0.745911
      ESP Fit Center  485 is at   3.926733  2.354127 -0.745911
      ESP Fit Center  486 is at   3.638220  2.658706 -0.745911
      ESP Fit Center  487 is at   3.290977  2.894143 -0.745911
      ESP Fit Center  488 is at   4.143025  0.365353 -0.745911
      ESP Fit Center  489 is at   4.276983  0.762926 -0.745911
      ESP Fit Center  490 is at   4.128282  1.180000 -1.108973
      ESP Fit Center  491 is at   4.077544  1.597866 -1.108973
      ESP Fit Center  492 is at   3.928278  1.991447 -1.108973
      ESP Fit Center  493 is at   3.689160  2.337869 -1.108973
      ESP Fit Center  494 is at   3.374086  2.617001 -1.108973
      ESP Fit Center  495 is at   3.928278  0.368553 -1.108973
      ESP Fit Center  496 is at   4.077544  0.762134 -1.108973
      ESP Fit Center  497 is at   3.867120  1.180000 -1.427200
      ESP Fit Center  498 is at   3.806970  1.598351 -1.427200
      ESP Fit Center  499 is at   3.631393  1.982811 -1.427200
      ESP Fit Center  500 is at   3.354614  2.302231 -1.427200
      ESP Fit Center  501 is at   2.999055  2.530734 -1.427200
      ESP Fit Center  502 is at   3.631393  0.377189 -1.427200
      ESP Fit Center  503 is at   3.806970  0.761648 -1.427200
      ESP Fit Center  504 is at   3.548893  1.180000 -1.688362
      ESP Fit Center  505 is at   3.470109  1.601460 -1.688362
      ESP Fit Center  506 is at   3.244395  1.965999 -1.688362
      ESP Fit Center  507 is at   2.902237  2.224385 -1.688362
      ESP Fit Center  508 is at   2.489845  2.341720 -1.688362
      ESP Fit Center  509 is at   1.235363  1.394380 -1.688362
      ESP Fit Center  510 is at   3.244395  0.394001 -1.688362
      ESP Fit Center  511 is at   3.470109  0.758540 -1.688362
      ESP Fit Center  512 is at   3.185831  1.180000 -1.882423
      ESP Fit Center  513 is at   3.078164  1.581817 -1.882423
      ESP Fit Center  514 is at   2.784013  1.875968 -1.882423
      ESP Fit Center  515 is at   2.382196  1.983635 -1.882423
      ESP Fit Center  516 is at   1.980378  1.875968 -1.882423
      ESP Fit Center  517 is at   1.686227  1.581817 -1.882423
      ESP Fit Center  518 is at   1.578560  1.180000 -1.882423
      ESP Fit Center  519 is at   2.784013  0.484031 -1.882423
      ESP Fit Center  520 is at   3.078164  0.778182 -1.882423
      ESP Fit Center  521 is at   2.791885  1.180000 -2.001925
      ESP Fit Center  522 is at   2.587040  1.534802 -2.001925
      ESP Fit Center  523 is at   2.177351  1.534802 -2.001925
      ESP Fit Center  524 is at   1.972506  1.180000 -2.001925
      ESP Fit Center  525 is at   2.177351  0.825198 -2.001925
      ESP Fit Center  526 is at   2.587040  0.825198 -2.001925
      ESP Fit Center  527 is at   2.382196  1.180000 -2.042276
      ESP Fit Center  528 is at   0.250891 -2.254567  1.601397
      ESP Fit Center  529 is at  -0.401333 -2.631129  1.601397
      ESP Fit Center  530 is at   0.033483 -2.631129  1.601397
      ESP Fit Center  531 is at  -0.603925 -2.982029  1.433564
      ESP Fit Center  532 is at  -0.183925 -3.094567  1.433564
      ESP Fit Center  533 is at   0.236075 -2.982029  1.433564
      ESP Fit Center  534 is at   0.543536 -2.674567  1.433564
      ESP Fit Center  535 is at  -1.193932 -2.879937  1.166581
      ESP Fit Center  536 is at  -0.899819 -3.202564  1.166581
      ESP Fit Center  537 is at  -0.509020 -3.397158  1.166581
      ESP Fit Center  538 is at  -0.074316 -3.437439  1.166581
      ESP Fit Center  539 is at   0.345585 -3.317967  1.166581
      ESP Fit Center  540 is at   0.693972 -3.054877  1.166581
      ESP Fit Center  541 is at  -1.250459 -3.244166  0.818641
      ESP Fit Center  542 is at  -0.911387 -3.514567  0.818641
      ESP Fit Center  543 is at  -0.507676 -3.673012  0.818641
      ESP Fit Center  544 is at  -0.075199 -3.705422  0.818641
      ESP Fit Center  545 is at   0.347618 -3.608917  0.818641
      ESP Fit Center  546 is at   0.723204 -3.392072  0.818641
      ESP Fit Center  547 is at  -1.331387 -3.402029  0.413457
      ESP Fit Center  548 is at  -0.995303 -3.659915  0.413457
      ESP Fit Center  549 is at  -0.603925 -3.822029  0.413457
      ESP Fit Center  550 is at  -0.183925 -3.877323  0.413457
      ESP Fit Center  551 is at   0.236075 -3.822029  0.413457
      ESP Fit Center  552 is at   0.627452 -3.659915  0.413457
      ESP Fit Center  553 is at   0.963536 -3.402029  0.413457
      ESP Fit Center  554 is at  -1.254798 -3.549030 -0.021359
      ESP Fit Center  555 is at  -0.899235 -3.774677 -0.021359
      ESP Fit Center  556 is at  -0.498726 -3.904810 -0.021359
      ESP Fit Center  557 is at  -0.078437 -3.931252 -0.021359
      ESP Fit Center  558 is at   0.335223 -3.852342 -0.021359
      ESP Fit Center  559 is at   0.716264 -3.673038 -0.021359
      ESP Fit Center  560 is at  -1.331387 -3.402029 -0.456175
      ESP Fit Center  561 is at  -0.995303 -3.659915 -0.456175
      ESP Fit Center  562 is at  -0.603925 -3.822029 -0.456175
      ESP Fit Center  563 is at  -0.183925 -3.877323 -0.456175
      ESP Fit Center  564 is at   0.236075 -3.822029 -0.456175
      ESP Fit Center  565 is at   0.627452 -3.659915 -0.456175
      ESP Fit Center  566 is at   0.963536 -3.402029 -0.456175
      ESP Fit Center  567 is at  -1.250459 -3.244166 -0.861359
      ESP Fit Center  568 is at  -0.911387 -3.514567 -0.861359
      ESP Fit Center  569 is at  -0.507676 -3.673012 -0.861359
      ESP Fit Center  570 is at  -0.075199 -3.705422 -0.861359
      ESP Fit Center  571 is at   0.347618 -3.608917 -0.861359
      ESP Fit Center  572 is at   0.723204 -3.392072 -0.861359
      ESP Fit Center  573 is at   1.018188 -3.074155 -0.861359
      ESP Fit Center  574 is at  -0.899819 -3.202564 -1.209298
      ESP Fit Center  575 is at  -0.509020 -3.397158 -1.209298
      ESP Fit Center  576 is at  -0.074316 -3.437439 -1.209298
      ESP Fit Center  577 is at   0.345585 -3.317967 -1.209298
      ESP Fit Center  578 is at   0.693972 -3.054877 -1.209298
      ESP Fit Center  579 is at   0.923795 -2.683701 -1.209298
      ESP Fit Center  580 is at   0.656075 -2.254567 -1.476281
      ESP Fit Center  581 is at  -0.603925 -2.982029 -1.476281
      ESP Fit Center  582 is at  -0.183925 -3.094567 -1.476281
      ESP Fit Center  583 is at   0.236075 -2.982029 -1.476281
      ESP Fit Center  584 is at   0.543536 -2.674567 -1.476281
      ESP Fit Center  585 is at  -0.401333 -2.631129 -1.644114
      ESP Fit Center  586 is at   0.033483 -2.631129 -1.644114
      ESP Fit Center  587 is at  -2.862398 -2.424564  1.703946
      ESP Fit Center  588 is at  -3.484990 -2.048002  1.536113
      ESP Fit Center  589 is at  -3.372452 -2.468002  1.536113
      ESP Fit Center  590 is at  -3.064990 -2.775464  1.536113
      ESP Fit Center  591 is at  -2.644990 -2.888002  1.536113
      ESP Fit Center  592 is at  -2.224990 -2.775464  1.536113
      ESP Fit Center  593 is at  -3.812703 -1.829719  1.269130
      ESP Fit Center  594 is at  -3.812703 -2.266285  1.269130
      ESP Fit Center  595 is at  -3.654997 -2.673372  1.269130
      ESP Fit Center  596 is at  -3.360884 -2.995998  1.269130
      ESP Fit Center  597 is at  -2.970085 -3.190593  1.269130
[...]
 57058,-0.0011761,-0.0021796,-0.022455,0.0300792,0.0919929,0.4163847,-0
 .0229842,0.0093936,-0.0483838,0.1896642,0.0215137,-0.0299829,0.0598907
 ,0.3077396,0.3828141,0.0117576,-0.0080524,0.0422077,0.2848365,0.108593
 5,-0.0413568,0.0354352,0.260408,0.339457,-0.0354402,-0.1116708,-0.0466
 441,0.2667879,-0.0277416,-0.0870811,-0.0819373,0.3075618,0.3352437,0.0
 398551,-0.096054,-0.0122227,0.3509322,-0.038057,-0.0714872,0.0257545,0
 .241886\Polar=44.8241047,-18.0060316,87.1656501,24.6060595,-4.909331,1
 05.9932942\Quadrupole=-10.2271891,0.9669189,9.2602702,-3.2968052,9.636
 969,-4.3035675\PG=C01 [X(C7H9N2)]\NImag=0\\0.26252759,-0.17878117,0.60
 619683,0.09531146,0.05952606,0.63301774,-0.11362325,0.09114638,-0.0200
 1106,0.26614750,0.09579647,-0.26264584,0.00759892,-0.20194618,0.579571
 49,-0.00008555,-0.03228572,-0.11447862,0.09045075,0.07478853,0.7258414
 6,-0.00540210,0.02305889,-0.01347411,-0.11512289,0.04760934,-0.0946235
 6,0.28843706,0.01725872,-0.01119592,0.02874850,0.05894700,-0.14633107,
 0.08719231,-0.23928118,0.64945040,-0.02617129,0.06445594,0.01597567,-0
 .06973542,0.03494753,-0.29022340,0.10042201,0.04117711,0.65733259,-0.0
 1096647,0.01163330,0.00986169,0.01709095,-0.01946579,-0.00298595,-0.08
 652387,0.02617125,-0.01346616,0.28269149,0.00891741,-0.04353177,-0.021
 82271,-0.02593985,0.04985424,-0.02610541,0.03897485,-0.18546830,-0.073
 59244,-0.20727572,0.59186464,0.00876544,-0.02299479,-0.01207339,-0.017
 79319,0.00684174,-0.05763694,0.01325798,-0.12557646,-0.27185390,0.1247
 4301,0.01959992,0.71915640,0.01345417,-0.02387822,-0.02146978,-0.01874
 130,0.01842228,-0.01218959,0.01100177,0.01221233,0.03329314,-0.1238762
 8,0.09901993,-0.02626984,0.26763541,-0.01140786,0.04297830,0.01063592,
 0.01667138,-0.03217627,0.02075639,0.00570208,-0.03050815,-0.05588810,0
 .11014320,-0.28741386,0.02495286,-0.20460036,0.60279408,-0.00607572,-0
 .02218965,-0.05705633,-0.01435961,0.02563310,-0.01689826,0.01920774,-0
 .02765276,0.03520530,-0.00022525,-0.02775822,-0.13257259,0.09091021,0.
 08537389,0.72482372,-0.07558254,0.03574000,0.01864922,0.00985863,0.007
 63228,0.01563148,-0.00770013,-0.00327586,-0.00847124,-0.00702611,0.026
 03467,-0.01187820,-0.11312989,0.04499399,-0.09343263,0.29144931,0.0243
 6652,-0.17737024,-0.11163587,0.01496356,-0.03335245,-0.02417459,-0.004
 25658,-0.00198864,-0.00848943,0.01691462,-0.01164195,0.03337611,0.0580
 9190,-0.14482571,0.08565914,-0.23948995,0.62766525,-0.00399331,-0.0746
 5927,-0.23782834,0.03030298,-0.05486024,0.02659934,-0.01032875,-0.0032
 7981,-0.05812691,-0.02775024,0.06518263,0.02797625,-0.06782874,0.03417
 395,-0.29373189,0.10390442,0.03007082,0.65248724,-0.09637335,0.0228235
 2,-0.04323814,-0.00920508,0.01158462,-0.01679239,0.00503925,0.00552653
 ,0.00157187,-0.00154563,0.00148549,0.00101780,0.00830375,-0.00040360,0
 .00229493,-0.00285606,-0.00636230,-0.00838743,0.31740833,0.01969759,-0
 .12044700,0.03075752,0.01208578,-0.01470803,0.03555949,0.00585435,-0.0
 0527787,-0.00419894,0.00072159,-0.00238479,-0.00104086,0.00160384,0.00
 138413,-0.00765692,-0.00853938,0.01578111,-0.00630344,0.08979845,0.855
 13953,-0.04449865,0.02940934,-0.18667751,-0.00811686,0.02367784,-0.007
 84809,0.00113126,-0.00090213,0.01048674,0.00070924,-0.00137028,-0.0014
 3727,0.00367526,-0.00994742,0.00056259,-0.01773668,0.00485579,-0.04468
 421,0.21142650,0.01455030,0.63743131,-0.00027417,-0.00911747,-0.020132
 28,-0.00096898,-0.00092860,0.00013476,0.00082497,-0.00076799,-0.000541
 84,0.00043209,-0.00050956,-0.00046082,-0.00065731,0.00025133,-0.001129
 92,0.00105476,0.00362941,0.00150212,-0.13183448,-0.09181680,-0.1130067
 6,0.22795206,-0.00021609,0.01636336,-0.00529663,0.00285201,-0.00556873
 ,0.00189118,-0.00094041,0.00039962,-0.00116695,0.00030543,-0.00041040,
 0.00044400,-0.00153725,0.00227378,0.00003533,0.00331935,-0.00035109,0.
 00541456,-0.08409984,-0.25857865,-0.10372451,0.17002662,0.83543415,-0.
 02383171,-0.02027116,-0.03919444,0.00094503,-0.00728280,-0.00021157,0.
 00059388,-0.00027795,-0.00194887,0.00042800,-0.00072234,0.00000151,-0.
 00042815,0.00250697,-0.00234865,-0.00229930,0.00530890,0.00344736,-0.1
 0931433,-0.11668695,-0.26520784,0.25461250,-0.06965208,0.76521378,0.00
 772740,0.01740845,-0.00767922,0.00183562,0.00030956,-0.00263145,-0.001
 09446,-0.00037272,-0.00045239,0.00022238,-0.00011028,0.00002338,-0.000
 44551,0.00011695,-0.00041443,-0.00021381,0.00222107,0.00154401,-0.0884
 1383,-0.01990579,-0.03436938,0.00924623,-0.03606841,-0.00181202,0.3394
 7837,0.00989910,-0.02483693,0.02378347,-0.00218003,0.00720511,-0.00176
 672,0.00076712,0.00108544,0.00379082,0.00006732,-0.00037754,-0.0010121
 5,0.00128215,-0.00139513,0.00111268,-0.00134639,-0.00524659,-0.0075102
 6,-0.02227959,-0.42132667,0.05975432,-0.01853443,-0.06480307,-0.006389
 48,0.10909605,0.85190772,-0.00341918,0.03936071,-0.00599137,0.00003967
 ,-0.00287165,-0.00489083,-0.00141547,0.00103983,-0.00072364,-0.0004647
 7,0.00058287,0.00017910,-0.00114928,0.00065203,0.00111471,0.00081847,0
 .00175621,-0.00128403,-0.03590647,0.07502468,-0.14588281,-0.00607851,-
 0.04298471,0.01735649,0.35606519,-0.06421462,0.63722394,0.00240031,0.0
 0682952,0.01298942,-0.04752017,0.02731879,0.02490476,0.00600948,-0.006
 72646,-0.01259297,0.00471200,0.00412290,-0.00346148,-0.00078206,-0.000
 03379,-0.00000391,0.00335766,0.00408488,-0.00163791,-0.00242869,-0.000
 59700,0.00135098,-0.00072008,0.00010247,-0.00107124,0.00024210,-0.0011
 0726,0.00027738,0.03981735,0.00260537,-0.01229584,-0.02353823,0.024893
 48,-0.13867664,-0.12890325,0.00026151,0.01007149,0.01206989,0.00382078
 ,0.00116062,0.00156290,-0.00018173,-0.00002029,0.00063265,0.00464379,-
 0.00267259,0.00172492,-0.00231043,-0.00177857,-0.00307710,-0.00098614,
 0.00169858,0.00087542,0.00004278,0.00014140,0.00053031,-0.03222632,0.1
 4262128,-0.00165258,0.00378982,0.00378942,0.02285275,-0.12984425,-0.25
 594756,0.00398792,-0.01763188,-0.01831749,-0.00330658,0.00234806,-0.00
 251196,-0.00017101,0.00083045,0.00002479,-0.00112346,0.00072944,0.0014
 3642,-0.00004442,0.00006705,-0.00031058,-0.00059151,0.00086521,-0.0000
 7075,0.00009358,0.00009569,0.00022634,-0.02071810,0.13847906,0.2711114
 9,0.00542861,0.00238968,-0.00262963,-0.00128801,0.01108209,0.00077109,
 -0.10522973,0.12432398,-0.00630172,0.00410656,0.00058944,-0.00205941,0
 .00560248,0.00212262,-0.00130396,-0.00024686,-0.00052314,0.00011324,0.
 00063252,0.00071885,-0.00008370,-0.00014490,-0.00000480,-0.00004550,-0
 .00030352,-0.00009725,-0.00014082,-0.00310855,-0.00216041,0.00072628,0
 .09836968,0.00254116,0.00266540,0.00094448,0.00359845,-0.00434935,-0.0
 0273750,0.12413372,-0.28806877,0.00559756,0.00830859,-0.01023411,0.003
 00851,0.00210938,0.00132538,-0.00324190,-0.00059217,0.00053672,-0.0003
 4666,0.00022324,-0.00002523,-0.00062811,0.00000431,0.00004259,0.000180
 52,-0.00002247,-0.00014005,0.00016820,-0.00190515,-0.00018358,0.000519
 93,-0.13635327,0.29935841,-0.00300145,0.00040857,-0.00397886,-0.014278
 54,0.02712955,0.00152678,-0.00650846,0.00490212,-0.06007318,0.01311184
 ,-0.02668391,0.00426247,-0.00119124,-0.00301499,-0.00398019,-0.0001055
 4,-0.00019004,-0.00105040,-0.00065305,0.00121542,0.00061582,0.00007318
 ,-0.00008169,-0.00014864,-0.00006718,0.00015547,-0.00045748,0.00108987
 ,0.00029201,0.00089047,0.01001372,-0.00405925,0.06138504,-0.00019904,0
 .00035390,0.00072446,0.00592498,0.00271585,-0.00051441,0.00644747,0.00
 090771,0.00359075,-0.08845481,0.04367304,-0.09568757,0.00060986,0.0048
 8856,-0.01283426,0.00497030,0.00449074,-0.00085014,-0.00109491,-0.0005
 8232,0.00015704,-0.00012638,0.00007919,-0.00025246,0.00011781,-0.00015
 279,0.00020256,-0.00015810,-0.00011782,0.00025526,-0.00288510,-0.00191
 686,0.00070991,0.07802334,-0.00004866,-0.00057439,-0.00067348,0.002867
 58,-0.00047733,-0.00401652,-0.00658218,0.01019018,-0.01881596,0.043736
 80,-0.09326709,0.08504022,0.01177699,-0.00558631,0.02640422,0.00484680
 ,-0.00315120,-0.00118624,-0.00046593,-0.00050192,0.00007416,-0.0000993
 0,0.00013799,-0.00003751,-0.00003739,0.00008367,0.00020842,-0.00047706
 ,0.00024801,-0.00081504,-0.00171037,-0.00005703,0.00078878,-0.05238039
 ,0.09331246,0.00056175,-0.00084737,0.00056196,-0.00042592,-0.00365696,
 -0.00206678,-0.01086473,0.01109078,-0.01715696,-0.09566367,0.08506802,
 -0.27513876,0.00137969,-0.00376287,0.00445631,-0.00073288,-0.00132608,
 0.00156179,0.00020409,0.00012441,-0.00022492,-0.00005172,0.00008929,0.
 00011243,-0.00002373,0.00005438,-0.00007739,-0.00042367,0.00050906,-0.
 00086474,0.00091595,0.00034377,0.00076291,0.10409347,-0.08821475,0.287
 38721,0.00469418,0.00384789,-0.00330363,-0.00064706,0.00023941,-0.0002
 2230,0.00437106,0.00473286,-0.00152402,0.00367340,0.00837220,0.0126483
 1,-0.04828935,0.02022581,0.01590664,0.00462631,-0.00625794,-0.01157367
 ,0.00100189,-0.00032843,-0.00045837,-0.00033529,-0.00006331,-0.0001193
 5,-0.00016316,0.00007168,0.00007968,-0.00088892,-0.00052304,0.00022110
 ,-0.00004693,0.00028360,0.00058645,-0.00281968,-0.00196023,0.00076648,
 0.03772179,0.00335562,0.00118292,0.00187154,0.00017595,-0.00054462,0.0
 0087901,0.00493934,-0.00268220,0.00085119,0.00215810,-0.01138040,-0.02
 590668,0.01956610,-0.14281058,-0.13407209,0.00025289,0.00981509,0.0138
 4344,0.00027225,0.00058546,0.00063399,0.00000875,-0.00017325,0.0001519
 2,-0.00002089,0.00001073,-0.00003429,-0.00048804,-0.00018417,-0.000002
 36,-0.00004074,-0.00055337,-0.00113432,-0.00189821,0.00010173,0.000668
 41,-0.02636138,0.14676101,-0.00306912,0.00226036,-0.00176242,-0.000057
 11,0.00066508,0.00043103,-0.00155842,0.00070796,0.00125895,-0.00191566
 ,0.00443567,0.00584231,0.01576945,-0.13374302,-0.26227390,0.00308414,-
 0.01644416,-0.01855307,0.00015359,-0.00116396,-0.00036403,-0.00013403,
 0.00022783,-0.00039251,-0.00007271,0.00019184,-0.00009847,0.00021385,0
 .00002462,-0.00005355,-0.00005563,0.00021635,0.00015408,0.00091412,0.0
 0016108,0.00053869,-0.01413556,0.14196020,0.27463308,0.00176868,0.0009
 2428,-0.00304372,0.00467250,0.00149505,-0.00090989,-0.00060204,-0.0004
 6882,-0.00008354,0.00548677,0.00273857,-0.00286790,0.00000738,0.010758
 26,0.00144127,-0.10858914,0.12873532,-0.00424662,-0.00216836,-0.001082
 11,0.00074674,-0.00024526,-0.00047834,-0.00066739,0.00002472,-0.000434
 59,0.00047251,0.00082360,0.00037810,-0.00027400,-0.00089369,-0.0004236
 3,0.00025591,-0.00040330,0.00032946,0.00015879,-0.00300966,-0.00200395
 ,0.00090120,0.10280659,0.00762692,-0.01091858,0.00169983,0.00143436,0.
 00159793,-0.00354195,-0.00051391,0.00053987,0.00032767,0.00318766,0.00
 236932,0.00121951,0.00502987,-0.00547912,-0.00298961,0.12573531,-0.274
 34446,-0.00031177,-0.00072896,-0.00303025,0.00171239,-0.00031235,0.000
 31123,-0.00046301,-0.00067900,0.00126390,0.00175319,0.00069097,-0.0003
 4358,0.00011773,-0.00045346,-0.00030536,0.00013636,0.00006102,-0.00045
 880,-0.00015120,-0.00219835,-0.00014221,0.00059407,-0.13964736,0.28836
 666,0.01259754,-0.02455880,0.00304516,-0.00122268,-0.00233093,-0.00414
 820,0.00000605,0.00004665,-0.00071520,-0.00296325,0.00049754,-0.004495
 63,-0.01463364,0.02725745,0.00323293,-0.00438048,-0.00171706,-0.059215
 16,0.00159227,-0.00201888,0.00068118,0.00004727,0.00054010,0.00054396,
 -0.00054531,0.00118833,-0.00038014,0.00034189,-0.00118177,0.00017317,0
 .00022257,0.00013536,0.00007233,-0.00048349,0.00121212,0.00008699,0.00
 108320,0.00017237,0.00075038,0.00710758,0.00005615,0.06237963,0.006087
 78,-0.00414259,-0.00097681,0.00018469,0.00029431,0.00026067,-0.0002752
 9,0.00011875,0.00023634,-0.00002096,0.00021434,0.00018570,0.00015948,-
 0.00113163,0.00006122,-0.00073415,0.00077936,-0.00166735,-0.00359097,0
 .00614956,-0.01840541,-0.06251641,0.01954533,-0.11356573,-0.00332290,0
 .00173075,0.00348117,0.00011625,0.00011178,-0.00006680,-0.00000590,-0.
 00000726,-0.00001293,0.00005074,0.00005259,-0.00001426,-0.00004253,0.0
 0007997,-0.00007601,0.00024091,0.00010860,0.00004970,0.05787912,-0.002
 00495,-0.00268796,-0.00107878,0.00048134,-0.00024490,0.00023812,0.0001
 3744,0.00015650,-0.00032713,-0.00005308,0.00005181,0.00007565,0.000247
 14,0.00013337,-0.00018464,-0.00040148,0.00054637,-0.00024484,-0.008619
 77,0.01338947,-0.02665392,0.01903275,-0.10967809,0.10593927,0.00071718
 ,0.00051246,-0.00007546,-0.00040247,0.00009316,0.00025212,0.00001323,0
 .00001829,-0.00000339,-0.00006269,-0.00001990,0.00002886,-0.00003964,0
 .00000675,-0.00004880,-0.00011443,-0.00007046,0.00003504,-0.02091893,0
 .10130345,-0.00146386,-0.00224650,0.00201414,0.00035504,0.00015303,-0.
 00016095,0.00009137,0.00008562,0.00027401,0.00001192,-0.00025732,-0.00
 009664,0.00022408,0.00012877,-0.00022559,-0.00093961,-0.00008933,0.000
 26421,-0.00721876,0.00704211,-0.01772761,-0.11502527,0.10564810,-0.381
 42083,0.00318012,0.00306187,0.00093415,-0.00011239,0.00014545,0.000045
 08,-0.00000791,-0.00001138,0.00001520,-0.00001265,-0.00001618,0.000012
 29,0.00007826,0.00006069,-0.00002328,-0.00005457,-0.00010528,-0.000076
 82,0.12386513,-0.10899085,0.39728516,-0.00347748,0.00073533,-0.0002962
 9,0.00069538,-0.00210774,-0.00179565,-0.00003690,0.00085071,0.00051500
 ,0.00007719,-0.00042952,0.00003041,-0.00020753,0.00093284,-0.00013256,
 0.00031478,-0.00001042,0.00137024,-0.00011420,-0.01423229,0.00996630,-
 0.04152777,-0.07417568,-0.00338866,0.00258485,-0.00135621,-0.00380514,
 -0.00195733,0.00151308,-0.00017525,0.00004796,0.00002239,-0.00006098,-
 0.00001860,0.00004900,0.00012497,0.00003830,-0.00000009,0.00005005,-0.
 00012968,0.00012133,0.00010991,0.00444799,0.01191080,-0.00254032,0.037
 48355,0.00193565,0.00000292,0.00234512,-0.00033874,0.00153230,0.000972
 23,-0.00002523,-0.00011478,0.00005310,-0.00010509,0.00042579,0.0002499
 9,0.00039217,-0.00088241,0.00050415,0.00012850,-0.00049284,-0.00139713
 ,-0.00425859,-0.02205253,0.00238844,-0.07126328,-0.41768755,0.10191771
 ,-0.00192506,0.00391661,-0.00176447,0.00086622,0.00016010,0.00019006,0
 .00007590,-0.00004981,0.00008857,0.00001984,-0.00000385,-0.00001743,-0
 .00001112,-0.00001848,0.00004386,0.00007906,-0.00000247,-0.00009210,-0
 .00238064,-0.00142760,-0.00293579,0.07676466,0.43696103,0.00145103,-0.
 00106770,-0.00118965,0.00027382,0.00021083,0.00029296,0.00010951,0.000
 28967,-0.00083231,-0.00016602,0.00027476,0.00013340,-0.00008348,-0.000
 14215,0.00005940,0.00017564,0.00019785,-0.00005767,-0.00301123,-0.0301
 4149,0.01087757,0.00004556,0.10582600,-0.09662385,-0.00465114,-0.00259
 530,-0.00330267,-0.00116272,0.00007061,0.00037412,-0.00005327,-0.00002
 468,0.00003810,-0.00003159,-0.00000177,0.00003374,-0.00002430,0.000007
 63,-0.00000990,-0.00003831,0.00003488,0.00008959,0.00696916,0.03117115
 ,-0.00160018,0.00076032,-0.10301029,0.09100613,0.00436418,-0.00182342,
 -0.00333813,0.00109383,-0.00029046,0.00117022,-0.00028834,-0.00056378,
 -0.00060892,-0.00007838,0.00037218,0.00011853,-0.00008536,-0.00005629,
 0.00022772,-0.00019074,0.00025820,-0.00015891,0.00639716,-0.00276277,0
 .00642600,-0.00444384,-0.00039981,0.00146345,-0.11831846,0.05980621,-0
 .16162334,0.00010267,0.00019970,-0.00008402,-0.00002687,-0.00003933,0.
 00009614,0.00003877,0.00003379,0.00001273,0.00001757,-0.00000571,0.000
 01097,0.00004845,0.00001526,-0.00002048,0.00197131,-0.00007712,-0.0005
 7554,-0.00065843,0.00012993,0.00010188,0.11342100,-0.00183185,-0.00351
 118,-0.00220076,-0.00032502,-0.00012058,0.00123386,0.00039886,-0.00014
 799,-0.00017567,-0.00007366,-0.00002636,-0.00003364,0.00013024,0.00016
 100,0.00007501,0.00035030,0.00023830,-0.00048414,0.01837963,-0.0122129
 9,0.03424169,0.00094029,0.00327137,-0.00009667,0.05850234,-0.13546173,
 0.12153444,-0.00006003,-0.00008571,-0.00001309,0.00006537,0.00000634,0
 .00006749,-0.00004965,-0.00000405,0.00000788,0.00000204,0.00000682,-0.
 00000085,-0.00032824,0.00017320,0.00023403,-0.00060729,-0.00206214,-0.
 00168470,-0.00006143,0.00008822,-0.00009858,-0.06512552,0.13542138,-0.
 00199247,-0.00011261,0.00456190,-0.00004749,0.00055302,-0.00089704,0.0
 0017282,0.00052254,0.00050346,0.00000452,-0.00000885,0.00003915,0.0004
 5565,-0.00024916,0.00007951,-0.00014063,-0.00027890,-0.00026895,-0.002
 18520,0.00329801,-0.00211282,0.00189631,-0.00309302,-0.00070387,-0.160
 89967,0.12104145,-0.29984370,-0.00017458,-0.00008132,0.00007670,-0.000
 06413,-0.00004843,-0.00003863,-0.00006909,-0.00003292,0.00000844,0.000
 01735,0.00001934,0.00000320,-0.00032088,-0.00002996,0.00003289,-0.0005
 1973,-0.00050941,0.00081712,0.00013686,0.00024958,-0.00040906,0.168785
 67,-0.13318299,0.30763299,-0.00255450,0.00085173,0.00205654,-0.0003873
 3,0.00023872,-0.00057298,0.00014469,0.00040699,0.00032038,-0.00000034,
 -0.00025008,-0.00031216,-0.00055970,0.00082651,-0.00013749,0.00063769,
 -0.00163527,-0.00031395,0.00084265,0.00321690,0.00108649,0.00428475,0.
 00175354,-0.00124702,-0.14920383,-0.13523182,-0.14743364,-0.00001750,0
 .00003553,0.00007084,-0.00000777,0.00003529,-0.00005766,-0.00002335,0.
 00006850,-0.00001732,0.00009808,0.00001006,-0.00002314,0.00016153,0.00
 052206,0.00109136,-0.00062917,0.00015467,0.00014495,0.00243792,-0.0000
 8418,-0.00066485,-0.00336451,-0.01030640,-0.00505531,0.14814069,0.0002
 9004,0.00062589,-0.00166490,0.00061257,-0.00056527,0.00002054,-0.00023
 801,-0.00010982,-0.00061616,-0.00019530,0.00041013,0.00019317,0.000313
 24,0.00004779,0.00031562,-0.00003265,0.00085492,0.00017348,-0.02056472
 ,-0.02395521,-0.02499479,0.00044244,-0.00268184,0.00499924,-0.12927238
 ,-0.21253933,-0.13066567,0.00000785,0.00004634,0.00002199,-0.00003771,
 0.00001353,-0.00001673,-0.00002911,0.00002783,-0.00000819,-0.00003204,
 0.00001877,-0.00008814,-0.00045662,0.00047319,0.00052439,0.00000299,-0
 .00002060,0.00001171,-0.00052678,-0.00035467,-0.00100142,0.01032894,0.
 01426612,0.01194362,0.13938726,0.22344222,0.00056767,0.00202278,-0.002
 73506,0.00082787,-0.00135236,0.00071668,-0.00020706,-0.00048209,-0.001
 06486,0.00003732,0.00033202,0.00022649,-0.00029271,-0.00052098,-0.0004
 7186,-0.00102274,0.00239123,0.00102804,0.00849036,0.00157246,0.0118224
 7,-0.00115905,0.00501798,0.00159629,-0.14728766,-0.13074179,-0.1941021
 9,0.00019083,-0.00013522,-0.00007138,-0.00001716,-0.00001677,0.0000041
 9,0.00008809,-0.00007864,0.00000681,-0.00002630,0.00003002,-0.00008059
 ,0.00142280,-0.00005897,-0.00205708,0.00019594,0.00037701,-0.00032945,
 -0.00086921,0.00021440,0.00112028,-0.01200395,-0.01942331,-0.00948130,
 0.15106495,0.14085225,0.19387252\\0.00000812,-0.00000597,-0.00001358,-
 0.00001181,-0.00001524,0.00002722,0.00001006,0.00000978,-0.00001701,-0
 .00000570,-0.00000457,-0.00000003,-0.00000892,0.00000575,-0.00000809,0
 .00001051,0.00000362,0.00001830,0.00000364,-0.00000478,0.00002492,-0.0
 0000850,-0.00000359,-0.00002629,-0.00000251,0.00001509,-0.00001082,0.0
 0000221,0.00000178,0.00000197,0.00000011,-0.00000007,0.00000095,0.0000
 0041,-0.00000076,-0.00000220,0.00000307,-0.00000014,0.00000144,-0.0000
 0372,-0.00000134,-0.00000289,0.00000374,-0.00000120,0.00000172,-0.0000
 0220,0.00000184,0.00000352,-0.00000410,0.00000031,0.00000267,0.0000056
 0,-0.00000049,-0.00000180\\\@


          EVOLUTION
 IN THE BEGINNING GOD MADE MAN.
 HE WORKED THE DIRT WITH HIS HANDS.
 THEN GOD DECIDED TO GIVE MAN SCIENCE,
 MAN SHOULD BE USEFUL (LIKE AN APPLIANCE.)
 BUT SOON MAN'S KNOWLEDGE GREW TOO GREAT,
 TO THE HEADING SCIENCE HE COULDN'T RELATE
 SO GOD SAID "LETS HAVE DIFFERENT FIELDS,
 WE'LL DIVIDE THEM UP, SEE WHAT IT YIELDS."
 ENTER PHYSICS, CHEMISTRY, BIO
 THEY SPRANG UP AROUND THE NILE.
 BUT CHEMISTRY SURPASSED THE REST
 FAR AND AWAY IT WAS THE BEST.
 EXPERIMENT WAS GOD'S DECREE
 EXPERIMENT DID CHEMISTS WITH LOTS OF GLEE
 BUT SOON THEIR TESTS BEGAN TO BOG,
 THEY FOUND THEMSELVES DEEP IN A FOG.
 "GIVE US SOME HELP" THEY CRIED TO GOD.
 GOD LOOKED AROUND, THEN GAVE THE NOD.
 ENTER EINSTEIN, HEISENBERG, BOHR,
 REACTION PATHS WERE CLEAR ONCE MORE.
 WITH THEORISTS GOD SEND DIRECTION
 AND THEN HE STOPPED, HE'D MADE PERFECTION.
          -- THOMAS A. HOLME, 1981
 Job cpu time:       0 days  0 hours  9 minutes 25.7 seconds.
 Elapsed time:       0 days  0 hours  0 minutes 48.1 seconds.
 File lengths (MBytes):  RWF=     95 Int=      0 D2E=      0 Chk=      3 Scr=      2
 Normal termination of Gaussian 16 at Sat May  8 21:17:11 2021.
