host_qm gaussian input file                                             
Freq      RB3LYP                                                      6-31G               
Number of atoms                            I               27
Info1-9                                    I   N=           9
          36          36        1002           0           0         101
           6          18        -502
Full Title                                 C   N=           3
host_qm gaussian input file         
Route                                      C   N=           8
# B3LYP 6-31G OPT FREQ Integral=(Grid=UltraFine) Pop(MK,Read
Radii) IOp(6/33=2,6/42=6)           
Charge                                     I                0
Multiplicity                               I                1
Number of electrons                        I              100
Number of alpha electrons                  I               50
Number of beta electrons                   I               50
Number of basis functions                  I              145
Number of independent functions            I              145
Number of point charges in /Mol/           I                0
Number of translation vectors              I                0
Atomic numbers                             I   N=          27
           7           1           6           1           6           1
           6           1           1           1           6           1
           1           1           6           8           7           1
           6           1           6           1           1           8
           1           6           8
Nuclear charges                            R   N=          27
  7.00000000E+00  1.00000000E+00  6.00000000E+00  1.00000000E+00  6.00000000E+00
  1.00000000E+00  6.00000000E+00  1.00000000E+00  1.00000000E+00  1.00000000E+00
  6.00000000E+00  1.00000000E+00  1.00000000E+00  1.00000000E+00  6.00000000E+00
  8.00000000E+00  7.00000000E+00  1.00000000E+00  6.00000000E+00  1.00000000E+00
  6.00000000E+00  1.00000000E+00  1.00000000E+00  8.00000000E+00  1.00000000E+00
  6.00000000E+00  8.00000000E+00
Current cartesian coordinates              R   N=          81
 -2.03772863E+00  3.04923182E+00  5.69566580E-01 -2.33667416E+00  3.51814547E+00
 -1.30296421E+00 -2.89529333E+00  4.11884484E-01  9.82749573E-01 -3.37290785E+00
  2.05031145E-01  2.99403097E+00 -5.12297974E+00 -5.31345034E-01 -6.38356064E-01
 -4.50386134E+00 -4.43827711E-01 -2.62008700E+00 -5.77313941E+00 -3.30064140E+00
 -1.60106750E-02 -4.16931449E+00 -4.54721481E+00 -3.98502019E-01 -6.31401619E+00
 -3.50309028E+00  1.97802518E+00 -7.37254222E+00 -3.94242349E+00 -1.16559374E+00
 -7.43919544E+00  1.19785707E+00 -2.84646875E-01 -8.12269668E+00  1.11966023E+00
  1.67281265E+00 -6.99180940E+00  3.17268372E+00 -7.13841027E-01 -8.98834002E+00
  5.98484985E-01 -1.52168403E+00 -3.95104389E-01 -9.42414943E-01  4.00797143E-01
  6.49169402E-02 -2.16509492E+00 -1.56516717E+00  1.51965136E+00 -2.51428923E-01
  2.08436146E+00  9.27800793E-01  9.05420979E-01  3.49468047E+00  4.04217690E+00
  2.90248298E-01  1.16209300E+00  5.22137963E+00  8.76923869E-01  2.75955184E+00
  5.41639623E+00 -1.90075543E+00 -2.19693202E-01  5.19456823E+00 -3.59990403E+00
  9.46257440E-01  4.56617795E+00 -2.25294059E+00 -2.05335763E+00  8.03092702E+00
 -1.26001084E+00 -6.69785160E-01  9.03832559E+00 -1.44152530E+00  8.70905414E-01
  3.84298309E+00  2.62403389E+00 -6.15481625E-01  2.00357949E+00  3.75720000E+00
 -1.28335245E+00
Number of symbols in /Mol/                 I                0
Force Field                                I                0
Atom Types                                 C   N=          27
                                                            
                                                            
                                                            
                                                            
                                                            
                        
Int Atom Types                             I   N=          27
           0           0           0           0           0           0
           0           0           0           0           0           0
           0           0           0           0           0           0
           0           0           0           0           0           0
           0           0           0
MM charges                                 R   N=          27
  0.00000000E+00  0.00000000E+00  0.00000000E+00  0.00000000E+00  0.00000000E+00
  0.00000000E+00  0.00000000E+00  0.00000000E+00  0.00000000E+00  0.00000000E+00
  0.00000000E+00  0.00000000E+00  0.00000000E+00  0.00000000E+00  0.00000000E+00
  0.00000000E+00  0.00000000E+00  0.00000000E+00  0.00000000E+00  0.00000000E+00
  0.00000000E+00  0.00000000E+00  0.00000000E+00  0.00000000E+00  0.00000000E+00
  0.00000000E+00  0.00000000E+00
Integer atomic weights                     I   N=          27
          14           1          12           1          12           1
          12           1           1           1          12           1
           1           1          12          16          14           1
          12           1          12           1           1          16
           1          12          16
Real atomic weights                        R   N=          27
  1.40030740E+01  1.00782504E+00  1.20000000E+01  1.00782504E+00  1.20000000E+01
  1.00782504E+00  1.20000000E+01  1.00782504E+00  1.00782504E+00  1.00782504E+00
  1.20000000E+01  1.00782504E+00  1.00782504E+00  1.00782504E+00  1.20000000E+01
  1.59949146E+01  1.40030740E+01  1.00782504E+00  1.20000000E+01  1.00782504E+00
  1.20000000E+01  1.00782504E+00  1.00782504E+00  1.59949146E+01  1.00782504E+00
  1.20000000E+01  1.59949146E+01
Atom fragment info                         I   N=          27
           0           0           0           0           0           0
           0           0           0           0           0           0
           0           0           0           0           0           0
           0           0           0           0           0           0
           0           0           0
Atom residue num                           I   N=          27
           0           0           0           0           0           0
           0           0           0           0           0           0
           0           0           0           0           0           0
           0           0           0           0           0           0
           0           0           0
Nuclear spins                              I   N=          27
           2           1           0           1           0           1
           0           1           1           1           0           1
           1           1           0           0           2           1
           0           1           0           1           1           0
           1           0           0
Nuclear ZEff                               R   N=          27
 -4.55000000E+00 -1.00000000E+00 -3.60000000E+00 -1.00000000E+00 -3.60000000E+00
 -1.00000000E+00 -3.60000000E+00 -1.00000000E+00 -1.00000000E+00 -1.00000000E+00
 -3.60000000E+00 -1.00000000E+00 -1.00000000E+00 -1.00000000E+00 -3.60000000E+00
 -5.60000000E+00 -4.55000000E+00 -1.00000000E+00 -3.60000000E+00 -1.00000000E+00
 -3.60000000E+00 -1.00000000E+00 -1.00000000E+00 -5.60000000E+00 -1.00000000E+00
 -3.60000000E+00 -5.60000000E+00
Nuclear ZNuc                               R   N=          27
  7.00000000E+00  1.00000000E+00  6.00000000E+00  1.00000000E+00  6.00000000E+00
  1.00000000E+00  6.00000000E+00  1.00000000E+00  1.00000000E+00  1.00000000E+00
  6.00000000E+00  1.00000000E+00  1.00000000E+00  1.00000000E+00  6.00000000E+00
  8.00000000E+00  7.00000000E+00  1.00000000E+00  6.00000000E+00  1.00000000E+00
  6.00000000E+00  1.00000000E+00  1.00000000E+00  8.00000000E+00  1.00000000E+00
  6.00000000E+00  8.00000000E+00
Nuclear QMom                               R   N=          27
  2.04400000E+00  0.00000000E+00  0.00000000E+00  0.00000000E+00  0.00000000E+00
  0.00000000E+00  0.00000000E+00  0.00000000E+00  0.00000000E+00  0.00000000E+00
  0.00000000E+00  0.00000000E+00  0.00000000E+00  0.00000000E+00  0.00000000E+00
  0.00000000E+00  2.04400000E+00  0.00000000E+00  0.00000000E+00  0.00000000E+00
  0.00000000E+00  0.00000000E+00  0.00000000E+00  0.00000000E+00  0.00000000E+00
  0.00000000E+00  0.00000000E+00
Nuclear GFac                               R   N=          27
  4.03761000E-01  2.79284600E+00  0.00000000E+00  2.79284600E+00  0.00000000E+00
  2.79284600E+00  0.00000000E+00  2.79284600E+00  2.79284600E+00  2.79284600E+00
  0.00000000E+00  2.79284600E+00  2.79284600E+00  2.79284600E+00  0.00000000E+00
  0.00000000E+00  4.03761000E-01  2.79284600E+00  0.00000000E+00  2.79284600E+00
  0.00000000E+00  2.79284600E+00  2.79284600E+00  0.00000000E+00  2.79284600E+00
  0.00000000E+00  0.00000000E+00
MicOpt                                     I   N=          27
          -1          -1          -1          -1          -1          -1
          -1          -1          -1          -1          -1          -1
          -1          -1          -1          -1          -1          -1
          -1          -1          -1          -1          -1          -1
          -1          -1          -1
Number of residues                         I                0
Number of secondary structures             I                0
Redundant internal dimensions              I   N=           4
         132          26          45          61
Redundant internal coordinate indices      I   N=         528
           1           2           0           0           1           3
           0           0           3           4           0           0
           3           5           0           0           3          15
           0           0           5           6           0           0
           5           7           0           0           5          11
           0           0           7           8           0           0
           7           9           0           0           7          10
           0           0          11          12           0           0
          11          13           0           0          11          14
           0           0          15          16           0           0
          15          17           0           0          17          18
           0           0          17          19           0           0
          19          20           0           0          19          21
           0           0          19          26           0           0
          21          22           0           0          21          23
           0           0          21          24           0           0
          24          25           0           0          26          27
           0           0           2           1           3           0
           1           3           4           0           1           3
           5           0           1           3          15           0
           4           3           5           0           4           3
          15           0           5           3          15           0
           3           5           6           0           3           5
           7           0           3           5          11           0
           6           5           7           0           6           5
          11           0           7           5          11           0
           5           7           8           0           5           7
           9           0           5           7          10           0
           8           7           9           0           8           7
          10           0           9           7          10           0
           5          11          12           0           5          11
          13           0           5          11          14           0
          12          11          13           0          12          11
          14           0          13          11          14           0
           3          15          16           0           3          15
          17           0          16          15          17           0
          15          17          18           0          15          17
          19           0          18          17          19           0
          17          19          20           0          17          19
          21           0          17          19          26           0
          20          19          21           0          20          19
          26           0          21          19          26           0
          19          21          22           0          19          21
          23           0          19          21          24           0
          22          21          23           0          22          21
          24           0          23          21          24           0
          21          24          25           0          19          26
          27           0           2           1           3           4
           2           1           3           5           2           1
           3          15           1           3           5           6
           1           3           5           7           1           3
           5          11           4           3           5           6
           4           3           5           7           4           3
           5          11          15           3           5           6
          15           3           5           7          15           3
           5          11           1           3          15          16
           1           3          15          17           4           3
          15          16           4           3          15          17
           5           3          15          16           5           3
          15          17           3           5           7           8
           3           5           7           9           3           5
           7          10           6           5           7           8
           6           5           7           9           6           5
           7          10          11           5           7           8
          11           5           7           9          11           5
           7          10           3           5          11          12
           3           5          11          13           3           5
          11          14           6           5          11          12
           6           5          11          13           6           5
          11          14           7           5          11          12
           7           5          11          13           7           5
          11          14           3          15          17          18
           3          15          17          19          16          15
          17          18          16          15          17          19
          15          17          19          20          15          17
          19          21          15          17          19          26
          18          17          19          20          18          17
          19          21          18          17          19          26
          17          19          21          22          17          19
          21          23          17          19          21          24
          20          19          21          22          20          19
          21          23          20          19          21          24
          26          19          21          22          26          19
          21          23          26          19          21          24
          17          19          26          27          20          19
          26          27          21          19          26          27
          19          21          24          25          22          21
          24          25          23          21          24          25
Redundant internal coordinates             R   N=         132
  1.95336121E+00  2.80387916E+00  2.07753623E+00  2.91208725E+00  2.90236805E+00
  2.07803378E+00  2.91187633E+00  2.91206203E+00  2.06700248E+00  2.07598464E+00
  2.07159717E+00  2.07483408E+00  2.06985560E+00  2.07107623E+00  2.36041980E+00
  2.64161694E+00  1.91770396E+00  2.73991395E+00  2.07040625E+00  2.93228736E+00
  2.94040897E+00  2.07262021E+00  2.05164099E+00  2.72926870E+00  1.84973696E+00
  2.26130991E+00  1.89679264E+00  1.88244457E+00  2.04496510E+00  1.71720820E+00
  1.90796240E+00  1.92377431E+00  1.97819050E+00  1.86432117E+00  1.93892223E+00
  1.92676984E+00  1.88640750E+00  1.90476962E+00  1.94032739E+00  1.93987627E+00
  1.93500201E+00  1.92667474E+00  1.89767347E+00  1.88550036E+00  1.87722517E+00
  1.93288967E+00  1.94920346E+00  1.92894811E+00  1.87841022E+00  1.88198400E+00
  1.89013277E+00  2.18534626E+00  1.95471345E+00  2.12356949E+00  1.98536176E+00
  2.09962178E+00  1.99590841E+00  1.89723233E+00  2.02903157E+00  1.87342700E+00
  1.88430126E+00  1.85471392E+00  1.91762919E+00  1.87267020E+00  1.93394235E+00
  1.92969443E+00  1.89409868E+00  1.96900131E+00  1.86491417E+00  1.94048357E+00
  2.25412744E+00 -2.70882049E+00 -5.48472690E-01  1.57604063E+00  1.07735810E+00
  3.13081080E+00 -9.91510552E-01 -3.05849121E+00 -1.00503851E+00  1.15582544E+00
 -9.05033546E-01  1.14841916E+00 -2.97390220E+00 -1.84743895E+00  1.08479196E+00
  2.47013626E+00 -8.80818132E-01  3.25385928E-01 -3.02556846E+00 -1.06048623E+00
  1.05235872E+00  3.13078801E+00  9.79496403E-01  3.09234136E+00 -1.11241466E+00
  3.06958417E+00 -1.10075619E+00  9.77673103E-01 -1.11677553E+00  9.76495642E-01
  3.08193463E+00  3.12240908E+00 -1.06750506E+00  1.03793393E+00  1.04327666E+00
  3.13654784E+00 -1.04119849E+00  8.39727838E-02 -2.37994274E+00  3.02469412E+00
  5.60778596E-01  3.09480922E+00 -1.05894211E+00  1.09550179E+00  6.34697473E-01
  2.76413145E+00 -1.36460996E+00 -8.24280819E-01  1.24067105E+00 -2.97814031E+00
  1.31195671E+00 -2.90627672E+00 -8.41902777E-01 -2.95561267E+00 -8.90660797E-01
  1.17371315E+00 -6.69769453E-02 -2.09454360E+00  2.15436263E+00  1.35040473E+00
 -7.46661981E-01 -2.82674699E+00
ZRed-IntVec                                I   N=         132
           0           0           0           0           0           0
           0           0           0           0           0           0
           0           0           0           0           0           0
           0           0           0           0           0           0
           0           0           0           0           0           0
           0           0           0           0           0           0
           0           0           0           0           0           0
           0           0           0           0           0           0
           0           0           0           0           0           0
           0           0           0           0           0           0
           0           0           0           0           0           0
           0           0           0           0           0           0
           0           0           0           0           0           0
           0           0           0           0           0           0
           0           0           0           0           0           0
           0           0           0           0           0           0
           0           0           0           0           0           0
           0           0           0           0           0           0
           0           0           0           0           0           0
           0           0           0           0           0           0
           0           0           0           0           0           0
           0           0           0           0           0           0
ZRed-FPVec                                 R   N=         132
  0.00000000E+00  0.00000000E+00  0.00000000E+00  0.00000000E+00  0.00000000E+00
  0.00000000E+00  0.00000000E+00  0.00000000E+00  0.00000000E+00  0.00000000E+00
  0.00000000E+00  0.00000000E+00  0.00000000E+00  0.00000000E+00  0.00000000E+00
  0.00000000E+00  0.00000000E+00  0.00000000E+00  0.00000000E+00  0.00000000E+00
  0.00000000E+00  0.00000000E+00  0.00000000E+00  0.00000000E+00  0.00000000E+00
  0.00000000E+00  0.00000000E+00  0.00000000E+00  0.00000000E+00  0.00000000E+00
  0.00000000E+00  0.00000000E+00  0.00000000E+00  0.00000000E+00  0.00000000E+00
  0.00000000E+00  0.00000000E+00  0.00000000E+00  0.00000000E+00  0.00000000E+00
  0.00000000E+00  0.00000000E+00  0.00000000E+00  0.00000000E+00  0.00000000E+00
  0.00000000E+00  0.00000000E+00  0.00000000E+00  0.00000000E+00  0.00000000E+00
  0.00000000E+00  0.00000000E+00  0.00000000E+00  0.00000000E+00  0.00000000E+00
  0.00000000E+00  0.00000000E+00  0.00000000E+00  0.00000000E+00  0.00000000E+00
  0.00000000E+00  0.00000000E+00  0.00000000E+00  0.00000000E+00  0.00000000E+00
  0.00000000E+00  0.00000000E+00  0.00000000E+00  0.00000000E+00  0.00000000E+00
  0.00000000E+00  0.00000000E+00  0.00000000E+00  0.00000000E+00  0.00000000E+00
  0.00000000E+00  0.00000000E+00  0.00000000E+00  0.00000000E+00  0.00000000E+00
  0.00000000E+00  0.00000000E+00  0.00000000E+00  0.00000000E+00  0.00000000E+00
  0.00000000E+00  0.00000000E+00  0.00000000E+00  0.00000000E+00  0.00000000E+00
  0.00000000E+00  0.00000000E+00  0.00000000E+00  0.00000000E+00  0.00000000E+00
  0.00000000E+00  0.00000000E+00  0.00000000E+00  0.00000000E+00  0.00000000E+00
  0.00000000E+00  0.00000000E+00  0.00000000E+00  0.00000000E+00  0.00000000E+00
  0.00000000E+00  0.00000000E+00  0.00000000E+00  0.00000000E+00  0.00000000E+00
  0.00000000E+00  0.00000000E+00  0.00000000E+00  0.00000000E+00  0.00000000E+00
  0.00000000E+00  0.00000000E+00  0.00000000E+00  0.00000000E+00  0.00000000E+00
  0.00000000E+00  0.00000000E+00  0.00000000E+00  0.00000000E+00  0.00000000E+00
  0.00000000E+00  0.00000000E+00  0.00000000E+00  0.00000000E+00  0.00000000E+00
  0.00000000E+00  0.00000000E+00
ZRed-Constraint1                           R   N=         132
  1.95336121E+00  2.80387916E+00  2.07753623E+00  2.91208725E+00  2.90236805E+00
  2.07803378E+00  2.91187633E+00  2.91206203E+00  2.06700248E+00  2.07598464E+00
  2.07159717E+00  2.07483408E+00  2.06985560E+00  2.07107623E+00  2.36041980E+00
  2.64161694E+00  1.91770396E+00  2.73991395E+00  2.07040625E+00  2.93228736E+00
  2.94040897E+00  2.07262021E+00  2.05164099E+00  2.72926870E+00  1.84973696E+00
  2.26130991E+00  1.89679264E+00  1.88244457E+00  2.04496510E+00  1.71720820E+00
  1.90796240E+00  1.92377431E+00  1.97819050E+00  1.86432117E+00  1.93892223E+00
  1.92676984E+00  1.88640750E+00  1.90476962E+00  1.94032739E+00  1.93987627E+00
  1.93500201E+00  1.92667474E+00  1.89767347E+00  1.88550036E+00  1.87722517E+00
  1.93288967E+00  1.94920346E+00  1.92894811E+00  1.87841022E+00  1.88198400E+00
  1.89013277E+00  2.18534626E+00  1.95471345E+00  2.12356949E+00  1.98536176E+00
  2.09962178E+00  1.99590841E+00  1.89723233E+00  2.02903157E+00  1.87342700E+00
  1.88430126E+00  1.85471392E+00  1.91762919E+00  1.87267020E+00  1.93394235E+00
  1.92969443E+00  1.89409868E+00  1.96900131E+00  1.86491417E+00  1.94048357E+00
  2.25412744E+00 -2.70882049E+00 -5.48472690E-01  1.57604063E+00  1.07735810E+00
  3.13081080E+00 -9.91510552E-01 -3.05849121E+00 -1.00503851E+00  1.15582544E+00
 -9.05033546E-01  1.14841916E+00 -2.97390220E+00 -1.84743895E+00  1.08479196E+00
  2.47013626E+00 -8.80818132E-01  3.25385928E-01 -3.02556846E+00 -1.06048623E+00
  1.05235872E+00  3.13078801E+00  9.79496403E-01  3.09234136E+00 -1.11241466E+00
  3.06958417E+00 -1.10075619E+00  9.77673103E-01 -1.11677553E+00  9.76495642E-01
  3.08193463E+00  3.12240908E+00 -1.06750506E+00  1.03793393E+00  1.04327666E+00
  3.13654784E+00 -1.04119849E+00  8.39727838E-02 -2.37994274E+00  3.02469412E+00
  5.60778596E-01  3.09480922E+00 -1.05894211E+00  1.09550179E+00  6.34697473E-01
  2.76413145E+00 -1.36460996E+00 -8.24280819E-01  1.24067105E+00 -2.97814031E+00
  1.31195671E+00 -2.90627672E+00 -8.41902777E-01 -2.95561267E+00 -8.90660797E-01
  1.17371315E+00 -6.69769453E-02 -2.09454360E+00  2.15436263E+00  1.35040473E+00
 -7.46661981E-01 -2.82674699E+00
ZRed-Constraint2                           R   N=         132
  1.90728514E+00  2.78316949E+00  2.05982661E+00  2.94292735E+00  2.89409196E+00
  2.06160373E+00  2.98705692E+00  2.83142339E+00  2.05909921E+00  2.06007018E+00
  2.06013605E+00  2.05857105E+00  2.05928997E+00  2.05977980E+00  2.32702873E+00
  2.55549320E+00  1.90890028E+00  2.81098397E+00  2.05992630E+00  2.82429353E+00
  2.83697176E+00  2.06034318E+00  2.05889889E+00  2.62165704E+00  1.81502366E+00
  2.36232772E+00  2.03377259E+00  1.81012917E+00  1.94434376E+00  1.98508727E+00
  1.78473309E+00  1.98618337E+00  1.94013793E+00  1.93288440E+00  1.86544093E+00
  1.98447381E+00  1.94085838E+00  1.84827153E+00  1.89286062E+00  2.01331236E+00
  1.95954757E+00  1.92666295E+00  1.90907109E+00  1.81167864E+00  1.82909461E+00
  2.04255956E+00  1.80237075E+00  2.03367672E+00  1.90618403E+00  1.86974644E+00
  1.78758524E+00  2.09157540E+00  2.03039973E+00  2.16096639E+00  2.09892083E+00
  2.12786719E+00  2.05093576E+00  1.94146507E+00  1.81330254E+00  1.95988853E+00
  1.95537383E+00  1.76207925E+00  2.03643587E+00  1.90383390E+00  1.78784300E+00
  1.95897010E+00  1.93324529E+00  1.93599906E+00  1.93897893E+00  1.87889592E+00
  2.10570692E+00 -1.72536684E+00  1.82118877E-01  2.39133983E+00  9.57946661E-01
  3.07456634E+00 -1.12058348E+00  2.88173676E+00 -1.28482887E+00  8.03206611E-01
 -1.27567598E+00  8.40943706E-01  2.92897919E+00 -1.17256229E+00  1.99185717E+00
  3.04261136E+00 -7.61544881E-02  1.03886123E+00 -2.07990462E+00 -1.02918747E+00
  1.17382572E+00 -3.07546029E+00  1.08237045E+00 -2.99780167E+00 -9.63902373E-01
  3.10786467E+00 -9.72307452E-01  1.06159184E+00 -1.12234432E+00  9.71974527E-01
  2.91603892E+00  3.03464163E+00 -1.15422483E+00  7.89839562E-01  9.50055762E-01
  3.04437461E+00 -1.29474631E+00 -8.67009271E-02 -3.11336015E+00  3.07872388E+00
  5.20646561E-02 -8.42984858E-02  2.02258256E+00 -2.04465983E+00 -3.11397387E+00
 -1.00709282E+00  1.20885010E+00 -9.10015201E-01  1.13931353E+00 -3.06285654E+00
  1.18747965E+00 -3.04637692E+00 -9.65361685E-01 -3.07718938E+00 -1.02786065E+00
  1.05315459E+00  5.90842136E-01 -1.47852512E+00  2.68117555E+00  1.38560219E+00
 -7.49089065E-01 -2.90748936E+00
SymInf integers                            I   N=          26
           1           1           1           1           1           0
           0           0           0           0           0           0
           0           0           0           0           0           0
           0           0           0           0           0           0
           0           0
RotTr to input orientation                 R   N=          12
  8.24104842E-01  5.33948742E-01 -1.89076571E-01  1.08234356E-01 -4.76086721E-01
 -8.72712300E-01 -5.56000479E-01  6.98741851E-01 -4.50136971E-01  5.72067545E+01
  5.81093961E+01  5.01987312E+01
Number of contracted shells                I               67
Number of primitive shells                 I              186
Pure/Cartesian d shells                    I                1
Pure/Cartesian f shells                    I                0
Highest angular momentum                   I                1
Largest degree of contraction              I                6
Shell types                                I   N=          67
           0          -1          -1           0           0           0
          -1          -1           0           0           0          -1
          -1           0           0           0          -1          -1
           0           0           0           0           0           0
           0          -1          -1           0           0           0
           0           0           0           0          -1          -1
           0          -1          -1           0          -1          -1
           0           0           0          -1          -1           0
           0           0          -1          -1           0           0
           0           0           0          -1          -1           0
           0           0          -1          -1           0          -1
          -1
Number of primitives per shell             I   N=          67
           6           3           1           3           1           6
           3           1           3           1           6           3
           1           3           1           6           3           1
           3           1           3           1           3           1
           6           3           1           3           1           3
           1           3           1           6           3           1
           6           3           1           6           3           1
           3           1           6           3           1           3
           1           6           3           1           3           1
           3           1           6           3           1           3
           1           6           3           1           6           3
           1
Shell to atom map                          I   N=          67
           1           1           1           2           2           3
           3           3           4           4           5           5
           5           6           6           7           7           7
           8           8           9           9          10          10
          11          11          11          12          12          13
          13          14          14          15          15          15
          16          16          16          17          17          17
          18          18          19          19          19          20