 Entering Gaussian System, Link 0=g16
 Initial command:
 /software/repo/qm/gaussian/16.B01-sse4/l1.exe "/home/aaojha/Downloads/qmmmrebind/Gau-22535.inp" -scrdir="/home/aaojha/Downloads/qmmmrebind/"
 Entering Link 1 = /software/repo/qm/gaussian/16.B01-sse4/l1.exe PID=     22537.
  
 Copyright (c) 1988-2017, Gaussian, Inc.  All Rights Reserved.
  
 This is part of the Gaussian(R) 16 program.  It is based on
 the Gaussian(R) 09 system (copyright 2009, Gaussian, Inc.),
 the Gaussian(R) 03 system (copyright 2003, Gaussian, Inc.),
 the Gaussian(R) 98 system (copyright 1998, Gaussian, Inc.),
 the Gaussian(R) 94 system (copyright 1995, Gaussian, Inc.),
 the Gaussian 92(TM) system (copyright 1992, Gaussian, Inc.),
 the Gaussian 90(TM) system (copyright 1990, Gaussian, Inc.),
 the Gaussian 88(TM) system (copyright 1988, Gaussian, Inc.),
 the Gaussian 86(TM) system (copyright 1986, Carnegie Mellon
 University), and the Gaussian 82(TM) system (copyright 1983,
 Carnegie Mellon University). Gaussian is a federally registered
 trademark of Gaussian, Inc.
  
 This software contains proprietary and confidential information,
 including trade secrets, belonging to Gaussian, Inc.
  
 This software is provided under written license and may be
 used, copied, transmitted, or stored only in accord with that
 written license.
  
 The following legend is applicable only to US Government
 contracts under FAR:
  
                    RESTRICTED RIGHTS LEGEND
  
 Use, reproduction and disclosure by the US Government is
 subject to restrictions as set forth in subparagraphs (a)
 and (c) of the Commercial Computer Software - Restricted
 Rights clause in FAR 52.227-19.
  
 Gaussian, Inc.
 340 Quinnipiac St., Bldg. 40, Wallingford CT 06492
  
  
 ---------------------------------------------------------------
 Warning -- This program may not be used in any manner that
 competes with the business of Gaussian, Inc. or will provide
 assistance to any competitor of Gaussian, Inc.  The licensee
 of this program is prohibited from giving any competitor of
 Gaussian, Inc. access to this program.  By using this program,
 the user acknowledges that Gaussian, Inc. is engaged in the
 business of creating and licensing software in the field of
 computational chemistry and represents and warrants to the
 licensee that it is not a competitor of Gaussian, Inc. and that
 it will not use this program in any manner prohibited above.
 ---------------------------------------------------------------
  

 Cite this work as:
 Gaussian 16, Revision B.01,
 M. J. Frisch, G. W. Trucks, H. B. Schlegel, G. E. Scuseria, 
 M. A. Robb, J. R. Cheeseman, G. Scalmani, V. Barone, 
 G. A. Petersson, H. Nakatsuji, X. Li, M. Caricato, A. V. Marenich, 
 J. Bloino, B. G. Janesko, R. Gomperts, B. Mennucci, H. P. Hratchian, 
 J. V. Ortiz, A. F. Izmaylov, J. L. Sonnenberg, D. Williams-Young, 
 F. Ding, F. Lipparini, F. Egidi, J. Goings, B. Peng, A. Petrone, 
 T. Henderson, D. Ranasinghe, V. G. Zakrzewski, J. Gao, N. Rega, 
 G. Zheng, W. Liang, M. Hada, M. Ehara, K. Toyota, R. Fukuda, 
 J. Hasegawa, M. Ishida, T. Nakajima, Y. Honda, O. Kitao, H. Nakai, 
 T. Vreven, K. Throssell, J. A. Montgomery, Jr., J. E. Peralta, 
 F. Ogliaro, M. J. Bearpark, J. J. Heyd, E. N. Brothers, K. N. Kudin, 
 V. N. Staroverov, T. A. Keith, R. Kobayashi, J. Normand, 
 K. Raghavachari, A. P. Rendell, J. C. Burant, S. S. Iyengar, 
 J. Tomasi, M. Cossi, J. M. Millam, M. Klene, C. Adamo, R. Cammi, 
 J. W. Ochterski, R. L. Martin, K. Morokuma, O. Farkas, 
 J. B. Foresman, and D. J. Fox, Gaussian, Inc., Wallingford CT, 2016.
 
 ******************************************
 Gaussian 16:  ES64L-G16RevB.01 20-Dec-2017
                 8-May-2021 
 ******************************************
 %Chk = host_guest.chk
 %Mem = 50GB
 %NProcShared = 12
 Will use up to   12 processors via shared memory.
 ----------------------------------------------------------------------
 # B3LYP 6-31G Integral=(Grid=UltraFine) Pop(MK,ReadRadii) IOp(6/33=2,6
 /42=6)
 ----------------------------------------------------------------------
 1/38=1,172=1/1;
 2/12=2,17=6,18=5,40=1/2;
 3/5=1,6=6,11=2,25=1,30=1,74=-5,75=-5/1,2,3;
 4//1;
 5/5=2,38=5/2;
 6/7=2,8=2,9=2,10=2,15=8,20=101,28=1,33=2,42=6/1,2;
 99/5=1,9=1/99;
 -------------------
 Gaussian Input File
 -------------------
 Symbolic Z-matrix:
 Charge =  1 Multiplicity = 1
 C                    0     25.897    35.473    23.918 
 C                    0     25.552    36.803    23.714 
 C                    0     25.205    37.274    22.371 
 C                    0     25.008    36.365    21.336 
 C                    0     25.342    35.033    21.579 
 C                    0     25.814    34.59     22.831 
 C                    0     26.396    34.832    25.173 
 N                    0     26.56     35.606    26.275 
 N                    0     26.901    33.514    25.213 
 H                    0     25.622    37.545    24.504 
 H                    0     24.881    38.306    22.272 
 H                    0     24.645    36.652    20.354 
 H                    0     25.356    34.425    20.679 
 H                    0     26.099    33.544    22.897 
 H                    0     27.166    35.296    27.024 
 H                    0     26.54     36.555    25.925 
 H                    0     27.776    33.309    25.679 
 H                    0     26.647    32.877    24.468 
 N                    0     30.112    28.08     27.542 
 H                    0     29.523    27.423    28.032 
 C                    0     29.462    29.307    27.051 
 H                    0     29.271    29.095    25.999 
 C                    0     28.022    29.456    27.625 
 H                    0     28.034    29.412    28.715 
 C                    0     27.466    30.845    27.115 
 H                    0     28.051    31.717    27.406 
 H                    0     27.311    30.857    26.036 
 H                    0     26.481    31.039    27.54 
 C                    0     27.082    28.377    27.181 
 H                    0     26.854    28.326    26.117 
 H                    0     27.591    27.462    27.483 
 H                    0     26.135    28.306    27.716 
 C                    0     30.285    30.577    27.286 
 O                    0     30.477    30.979    28.434 
 N                    0     30.74     31.21     26.181 
 H                    0     30.598    30.804    25.267 
 C                    0     31.581    32.434    26.266 
 H                    0     31.689    32.768    27.298 
 C                    0     32.887    32.014    25.673 
 H                    0     33.227    31.104    26.168 
 H                    0     32.62     31.813    24.636 
 O                    0     33.847    33.012    25.757 
 H                    0     34.198    33.004    26.651 
 C                    0     30.913    33.628    25.648 
 O                    0     29.672    33.766    25.708 
 
                          Input orientation:                          
 ---------------------------------------------------------------------
 Center     Atomic      Atomic             Coordinates (Angstroms)
 Number     Number       Type             X           Y           Z
 ---------------------------------------------------------------------
      1          6           0       25.897000   35.473000   23.918000
      2          6           0       25.552000   36.803000   23.714000
      3          6           0       25.205000   37.274000   22.371000
      4          6           0       25.008000   36.365000   21.336000
      5          6           0       25.342000   35.033000   21.579000
      6          6           0       25.814000   34.590000   22.831000
      7          6           0       26.396000   34.832000   25.173000
      8          7           0       26.560000   35.606000   26.275000
      9          7           0       26.901000   33.514000   25.213000
     10          1           0       25.622000   37.545000   24.504000
     11          1           0       24.881000   38.306000   22.272000
     12          1           0       24.645000   36.652000   20.354000
     13          1           0       25.356000   34.425000   20.679000
     14          1           0       26.099000   33.544000   22.897000
     15          1           0       27.166000   35.296000   27.024000
     16          1           0       26.540000   36.555000   25.925000
     17          1           0       27.776000   33.309000   25.679000
     18          1           0       26.647000   32.877000   24.468000
     19          7           0       30.112000   28.080000   27.542000
     20          1           0       29.523000   27.423000   28.032000
     21          6           0       29.462000   29.307000   27.051000
     22          1           0       29.271000   29.095000   25.999000
     23          6           0       28.022000   29.456000   27.625000
     24          1           0       28.034000   29.412000   28.715000
     25          6           0       27.466000   30.845000   27.115000
     26          1           0       28.051000   31.717000   27.406000
     27          1           0       27.311000   30.857000   26.036000
     28          1           0       26.481000   31.039000   27.540000
     29          6           0       27.082000   28.377000   27.181000
     30          1           0       26.854000   28.326000   26.117000
     31          1           0       27.591000   27.462000   27.483000
     32          1           0       26.135000   28.306000   27.716000
     33          6           0       30.285000   30.577000   27.286000
     34          8           0       30.477000   30.979000   28.434000
     35          7           0       30.740000   31.210000   26.181000
     36          1           0       30.598000   30.804000   25.267000
     37          6           0       31.581000   32.434000   26.266000
     38          1           0       31.689000   32.768000   27.298000
     39          6           0       32.887000   32.014000   25.673000
     40          1           0       33.227000   31.104000   26.168000
     41          1           0       32.620000   31.813000   24.636000
     42          8           0       33.847000   33.012000   25.757000
     43          1           0       34.198000   33.004000   26.651000
     44          6           0       30.913000   33.628000   25.648000
     45          8           0       29.672000   33.766000   25.708000
 ---------------------------------------------------------------------
                    Distance matrix (angstroms):
                    1          2          3          4          5
     1  C    0.000000
     2  C    1.389079   0.000000
     3  C    2.472989   1.464889   0.000000
     4  C    2.872753   2.478440   1.391515   0.000000
     5  C    2.443879   2.781227   2.380780   1.394571   0.000000
     6  C    1.402907   2.397019   2.790401   2.456682   1.409446
     7  C    1.494961   2.593426   3.902954   4.358807   3.750754
     8  N    2.452082   3.001265   4.456396   5.232447   4.885107
     9  N    2.553962   3.858021   5.009090   5.171342   4.236012
    10  H    2.170761   1.086077   2.190210   3.435931   3.865769
    11  H    3.430373   2.188290   1.086186   2.158635   3.377173
    12  H    3.957226   3.483540   2.183752   1.085570   2.146531
    13  H    3.447043   3.860638   3.316997   2.077583   1.086214
    14  H    2.191868   3.404083   3.871539   3.403681   2.127744
    15  H    3.359900   3.978963   5.422953   6.176817   5.748406
    16  H    2.369013   2.434372   3.863949   4.841699   4.758088
    17  H    3.363727   4.584260   5.768373   5.988540   5.070161
    18  H    2.757574   4.144999   5.080392   4.966074   3.833756
    19  N    9.249651  10.561151  11.633896  11.541511  10.327365
    20  H    9.740399  11.063379  12.154598  12.049108  10.818229
    21  C    7.781033   9.089207  10.173374  10.115073   8.927724
    22  H    7.509549   8.858073   9.828061   9.631700   8.380530
    23  C    7.379821   8.681891   9.831639   9.816822   8.650979
    24  H    8.019582   9.262678  10.490978  10.580668   9.474439
    25  C    5.839602   7.122356   8.303595   8.361161   7.259340
    26  H    5.559982   6.763376   8.020673   8.228527   7.231076
    27  H    5.271885   6.621230   7.684097   7.598149   6.417226
    28  H    5.755024   6.980330   8.198900   8.308166   7.265183
    29  C    7.899659   9.238964  10.286683  10.113043   8.871998
    30  H    7.538638   8.906691   9.839635   9.533688   8.237927
    31  H    8.930564  10.277021  11.318166  11.122990   9.860794
    32  H    8.114637   9.410361  10.481362  10.340310   9.140249
    33  C    7.387069   8.597880   9.737219   9.836167   8.766928
    34  O    7.846445   8.969560  10.206908  10.454691   9.475978
    35  N    6.837323   8.017673   9.051211   9.105156   8.058048
    36  H    6.761565   7.991366   8.906861   8.810538   7.688389
    37  C    6.859773   7.870814   8.902247   9.108347   8.224834
    38  H    7.231092   8.172457   9.307074   9.649850   8.838642
    39  C    7.994048   8.976326   9.878458   9.990966   9.099573
    40  H    8.824940   9.869465  10.809190  10.889367   9.933236
    41  H    7.688293   8.700966   9.483405   9.463258   8.525429
    42  O    8.522966   9.346259  10.213413  10.436272   9.688919
    43  H    9.081401   9.889979  10.836298  11.135603  10.405324
    44  C    5.617578   6.523902   7.524182   7.807275   7.040371
    45  O    4.513156   5.493069   6.587543   6.900875   6.115785
                    6          7          8          9         10
     6  C    0.000000
     7  C    2.425335   0.000000
     8  N    3.667412   1.356605   0.000000
     9  N    2.830772   1.412002   2.370778   0.000000
    10  H    3.401150   2.899484   2.788549   4.288063   0.000000
    11  H    3.871902   4.772809   5.112049   5.974374   2.471847
    12  H    3.428401   5.440695   6.310276   6.208580   4.355970
    13  H    2.206376   4.630689   5.844621   4.875869   4.943256
    14  H    1.086139   2.631982   3.984376   2.451114   4.337969
    15  H    4.461792   2.057765   1.012095   2.554500   3.713804
    16  H    3.736460   1.885463   1.011682   3.144033   1.960119
    17  H    3.688022   2.116593   2.666474   1.012327   4.895308
    18  H    2.511579   2.093335   3.274181   1.012576   4.779346
    19  N    9.112981   8.062898   8.417997   6.727787  10.907601
    20  H    9.600676   8.534945   8.878508   7.205687  11.406992
    21  C    7.682864   6.591879   6.978623   5.256978   9.439145
    22  H    7.223718   6.470013   7.058245   5.075653   9.324845
    23  C    7.363128   6.128422   6.463934   4.851984   8.996253
    24  H    8.146259   6.678713   6.818498   5.511270   9.470795
    25  C    5.925098   4.562065   4.918695   3.325716   7.423453
    26  H    5.847129   4.174750   4.315850   3.059568   6.948901
    27  H    5.142793   4.169247   4.813951   2.811597   7.066052
    28  H    5.935417   4.471774   4.739615   3.423004   7.230713
    29  C    7.689713   6.794828   7.304229   5.504049   9.661788
    30  H    7.149622   6.590063   7.287647   5.266381   9.439786
    31  H    8.695241   7.815435   8.297407   6.500439  10.696649
    32  H    7.965860   7.008826   7.452993   5.828810   9.794858
    33  C    7.479374   6.139553   6.339447   4.937080   8.833805
    34  O    8.134894   6.491093   6.435317   5.439563   9.062466
    35  N    6.849261   5.745023   6.066799   4.580760   8.314955
    36  H    6.569212   5.821548   6.354582   4.584193   8.413312
    37  C    7.050238   5.816294   5.939032   4.917073   8.045909
    38  H    7.601934   6.065605   5.950413   5.275290   8.211861
    39  C    8.046121   7.093956   7.300397   6.188198   9.205365
    40  H    8.845357   7.845417   8.045393   6.836549  10.104029
    41  H    7.569108   6.938365   7.334628   5.994438   9.046837
    42  O    8.693713   7.692260   7.752260   6.985331   9.474636
    43  H    9.348757   8.148452   8.077798   7.454807   9.938716
    44  C    5.904298   4.698780   4.822263   4.037123   6.681789
    45  O    4.882650   3.486367   3.659458   2.826123   5.668594
                   11         12         13         14         15
    11  H    0.000000
    12  H    2.543646   0.000000
    13  H    4.222018   2.360228   0.000000
    14  H    4.954876   4.270905   2.499547   0.000000
    15  H    6.071477   7.258311   6.655356   4.608701   0.000000
    16  H    4.377521   5.885276   5.784399   4.292946   1.784589
    17  H    6.705124   7.023848   5.665850   3.256851   2.475741
    18  H    6.116798   5.931579   4.291795   1.792550   3.557254
    19  N   12.637537  12.451290  10.487103   8.217998   7.811395
    20  H   13.159235  12.958434  10.975359   8.692447   8.279833
    21  C   11.171679  11.045466   9.146340   6.820385   6.414083
    22  H   10.863018  10.505910   8.487551   6.283119   6.628277
    23  C   10.809394  10.772836   8.946811   6.539393   5.932920
    24  H   11.426150  11.567594   9.842721   7.393698   6.183394
    25  C    9.263012   9.348284   7.660979   5.190839   4.462027
    26  H    8.934303   9.256661   7.736202   5.242072   3.706533
    27  H    8.692537   8.542523   6.726819   4.306069   4.549933
    28  H    9.117078   9.301358   7.733301   5.289461   4.342526
    29  C   11.292817  11.001024   9.046181   6.783571   6.921291
    30  H   10.875530  10.364079   8.307445   6.177860   7.035687
    31  H   12.332516  11.998236   9.988644   7.761970   7.858935
    32  H   11.454678  11.228306   9.357797   7.117633   7.099431
    33  C   10.680864  10.805917   9.096955   6.751963   5.662664
    34  O   11.089201  11.466541   9.911588   7.510291   5.620259
    35  N    9.998069  10.035852   8.342403   6.145819   5.493589
    36  H    9.896167   9.683743   7.851111   5.776288   5.919775
    37  C    9.763320  10.042478   8.598213   6.529516   5.315810
    38  H   10.113307  10.626501   9.309334   7.156750   5.188775
    39  C   10.735553  10.850501   9.352482   7.491597   6.732501
    40  H   11.692020  11.757280  10.154349   8.213490   7.418984
    41  H   10.374954  10.264116   8.674450   6.967347   6.897822
    42  O   10.980019  11.274698   9.993985   8.276118   7.173403
    43  H   11.579868  12.009160  10.764060   8.943037   7.405499
    44  C    8.346621   8.744074   7.497094   5.545237   4.326154
    45  O    7.441195   7.890820   6.659803   4.551630   3.217575
                   16         17         18         19         20
    16  H    0.000000
    17  H    3.482058   0.000000
    18  H    3.957522   1.711077   0.000000
    19  N    9.338067   6.022467   6.668351   0.000000
    20  H    9.835200   6.575227   7.121769   1.009292   0.000000
    21  C    7.895534   4.554227   5.228864   1.472790   2.124980
    22  H    7.944522   4.482769   4.851068   2.029373   2.644272
    23  C    7.448632   4.323545   4.853917   2.503670   2.559636
    24  H    7.812719   4.946763   5.653937   2.732808   2.576768
    25  C    5.905732   2.868709   3.436043   3.850827   4.096611
    26  H    5.280410   2.364872   3.456683   4.182581   4.582259
    27  H    5.750997   2.521107   2.641954   4.222010   4.546352
    28  H    5.747866   3.208309   3.583711   4.683999   4.750925
    29  C    8.291621   5.202140   5.272532   3.065849   2.755503
    30  H    8.237227   5.086474   4.844961   3.564506   3.406787
    31  H    9.285182   6.121769   6.269257   2.596314   2.008867
    32  H    8.450900   5.645552   5.630780   3.987215   3.515407
    33  C    7.184277   4.042444   5.144528   2.516043   3.329396
    34  O    7.272333   4.507142   5.830991   3.055011   3.703627
    35  N    6.802541   3.666483   4.739821   3.470390   4.387329
    36  H    7.069252   3.795847   4.532784   3.582178   4.498001
    37  C    6.520016   3.948192   5.270048   4.769010   5.697740
    38  H    6.537484   4.269123   5.782953   4.952152   5.813720
    39  C    7.808239   5.272512   6.413610   5.164314   6.161060
    40  H    8.630667   5.900385   7.023527   4.553644   5.544716
    41  H    7.817575   5.175925   6.069353   5.354455   6.355810
    42  O    8.122396   6.078761   7.315719   6.439027   7.423579
    43  H    8.472405   6.502299   7.861248   6.460267   7.410152
    44  C    5.269458   3.153330   4.489450   5.916852   6.790993
    45  O    4.199409   1.950514   3.388000   5.990639   6.756983
                   21         22         23         24         25
    21  C    0.000000
    22  H    1.090013   0.000000
    23  C    1.557330   2.081874   0.000000
    24  H    2.195246   3.001219   1.090954   0.000000
    25  C    2.520626   2.750633   1.580682   2.221736   0.000000
    26  H    2.815146   3.216043   2.271766   2.650810   1.089628
    27  H    2.838930   2.635833   2.234557   3.128545   1.090142
    28  H    3.482141   3.733352   2.210836   2.537629   1.090177
    29  C    2.558554   2.589280   1.498325   2.081030   2.498567
    30  H    2.938772   2.539129   2.217022   3.053097   2.777753
    31  H    2.662948   2.773327   2.044984   2.348739   3.405252
    32  H    3.537394   3.661298   2.211685   2.414009   2.929041
    33  C    1.531488   2.209273   2.548084   2.909685   2.836869
    34  O    2.395516   3.306526   3.000172   2.915939   3.289960
    35  N    2.451855   2.581532   3.542482   4.120242   3.424129
    36  H    2.591170   2.284170   3.743400   4.516687   3.636786
    37  C    3.858045   4.068945   4.835478   5.264152   4.492098
    38  H    4.122992   4.585308   4.952087   5.160392   4.643829
    39  C    4.577921   4.658572   5.832829   6.290928   5.730023
    40  H    4.264285   4.440110   5.650733   6.026385   5.844058
    41  H    4.699492   4.523394   5.969185   6.590481   5.800533
    42  O    5.884699   6.028369   7.075676   7.449881   6.874388
    43  H    6.021421   6.323030   7.188877   7.426807   7.084942
    44  C    4.769156   4.833989   5.447201   5.955652   4.666796
    45  O    4.661591   4.697204   4.997348   5.539170   3.921521
                   26         27         28         29         30
    26  H    0.000000
    27  H    1.778792   0.000000
    28  H    1.715383   1.727437   0.000000
    29  C    3.484994   2.741143   2.752513   0.000000
    30  H    3.820106   2.573202   3.086167   1.089349   0.000000
    31  H    4.280485   3.701113   3.745701   1.089729   1.776407
    32  H    3.924548   3.273068   2.760431   1.089989   1.753329
    33  C    2.510927   3.238144   3.840361   3.887188   4.266770
    34  O    2.736221   3.973518   4.095223   4.457178   5.053022
    35  N    2.998065   3.450170   4.473835   4.733588   4.839685
    36  H    3.449072   3.376172   4.708656   4.681451   4.569521
    37  C    3.778173   4.557711   5.438667   6.126783   6.264375
    38  H    3.788312   4.940794   5.492838   6.365455   6.671083
    39  C    5.145716   5.706329   6.743378   7.014261   7.084883
    40  H    5.357181   5.922625   6.884412   6.798803   6.952339
    41  H    5.343957   5.573098   6.835175   6.996611   6.899224
    42  O    6.163590   6.887754   7.831333   8.323234   8.425571
    43  H    6.325504   7.240069   8.012717   8.504557   8.723713
    44  C    3.864392   4.561073   5.470394   6.678297   6.693777
    45  O    3.115966   3.760876   4.579873   6.157853   6.140196
                   31         32         33         34         35
    31  H    0.000000
    32  H    1.698988   0.000000
    33  C    4.123066   4.750246   0.000000
    34  O    4.647869   5.149118   1.231411   0.000000
    35  N    5.065462   5.656453   1.352309   2.280030   0.000000
    36  H    5.012152   5.670624   2.055689   3.174138   1.010147
    37  C    6.490144   6.985829   2.483639   2.834795   1.487509
    38  H    6.706822   7.136602   2.602276   2.441303   2.139078
    39  C    7.214182   7.969480   3.381884   3.808208   2.348210
    40  H    6.837974   7.779561   3.191084   3.565513   2.489292
    41  H    7.233772   7.990036   3.741981   4.439911   2.506997
    42  O    8.539269   9.244407   4.577653   4.759865   3.616688
    43  H    8.663627   9.392412   4.648131   4.596254   3.923914
    44  C    7.240336   7.445105   3.519379   3.868991   2.482084
    45  O    6.871798   6.808380   3.610481   3.980762   2.810247
                   36         37         38         39         40
    36  H    0.000000
    37  C    2.149695   0.000000
    38  H    3.028620   1.090066   0.000000
    39  C    2.620774   1.494552   2.155074   0.000000
    40  H    2.795253   2.118448   2.532043   1.090287   0.000000
    41  H    2.346215   2.030286   2.977420   1.089522   1.793921
    42  O    3.958707   2.393308   2.662927   1.387321   2.047873
    43  H    4.440209   2.705885   2.601804   1.911885   2.187723
    44  C    2.866943   1.501261   2.016005   2.549960   3.463462
    45  O    3.134550   2.393714   2.755430   3.661551   4.464960
                   41         42         43         44         45
    41  H    0.000000
    42  O    2.049334   0.000000
    43  H    2.822905   0.960469   0.000000
    44  C    2.689278   2.999949   3.490933   0.000000
    45  O    3.695145   4.242822   4.685570   1.250090   0.000000
 Stoichiometry    C15H23N4O3(1+)
 Framework group  C1[X(C15H23N4O3)]
 Deg. of freedom   129
 Full point group                 C1      NOp   1
 Largest Abelian subgroup         C1      NOp   1
 Largest concise Abelian subgroup C1      NOp   1
                         Standard orientation:                         
 ---------------------------------------------------------------------
 Center     Atomic      Atomic             Coordinates (Angstroms)
 Number     Number       Type             X           Y           Z
 ---------------------------------------------------------------------
      1          6           0       -4.065321   -0.262787    0.312460
      2          6           0       -5.247382    0.242655    0.838578
      3          6           0       -6.399343    0.476745   -0.035543
      4          6           0       -6.398229    0.000676   -1.343087
      5          6           0       -5.202590   -0.522020   -1.835088
      6          6           0       -4.040920   -0.622625   -1.043293
      7          6           0       -2.754662   -0.453199    1.005874
      8          7           0       -2.652773   -0.091926    2.309514
      9          7           0       -1.566873   -0.792307    0.321832
     10          1           0       -5.326449    0.568207    1.871694
     11          1           0       -7.320631    0.812481    0.431695
     12          1           0       -7.264909    0.051496   -1.994811
     13          1           0       -5.217070   -0.684188   -2.909030
     14          1           0       -3.148352   -0.991536   -1.540208
     15          1           0       -1.742247    0.083766    2.714991
     16          1           0       -3.463777    0.489240    2.476905
     17          1           0       -0.706763   -0.288044    0.497149
     18          1           0       -1.641946   -1.215801   -0.594861
     19          7           0        5.006937   -1.682334   -0.798882
     20          1           0        5.340560   -2.617143   -0.615860
     21          6           0        3.582192   -1.427312   -0.526530
     22          1           0        3.113707   -1.504521   -1.507697
     23          6           0        2.930164   -2.612351    0.245364
     24          1           0        3.484861   -2.830185    1.159168
     25          6           0        1.442212   -2.187111    0.567431
     26          1           0        1.334361   -1.280303    1.161869
     27          1           0        0.832101   -2.104639   -0.332221
     28          1           0        0.950179   -2.952099    1.168416
     29          6           0        2.899777   -3.893176   -0.531516
     30          1           0        2.296970   -3.907720   -1.438761
     31          1           0        3.945649   -4.051824   -0.793227
     32          1           0        2.658630   -4.796580    0.028650
     33          6           0        3.318670   -0.094881    0.181028
     34          8           0        3.706646    0.071816    1.337773
     35          7           0        2.631695    0.832807   -0.523386
     36          1           0        2.386359    0.660661   -1.488047
     37          6           0        2.337831    2.181879    0.030086
     38          1           0        2.667829    2.264260    1.065731
     39          6           0        3.084767    3.110376   -0.871947
     40          1           0        4.122205    2.782269   -0.941182
     41          1           0        2.572503    2.975228   -1.823987
     42          8           0        3.009418    4.428908   -0.447147
     43          1           0        3.641246    4.541237    0.267470
     44          6           0        0.864370    2.427507    0.179635
     45          8           0        0.089295    1.492502    0.475861
 ---------------------------------------------------------------------
 Rotational constants (GHZ):           0.3513705           0.1151343           0.0963960
 Standard basis: 6-31G (6D, 7F)
 There are   244 symmetry adapted cartesian basis functions of A   symmetry.
 There are   244 symmetry adapted basis functions of A   symmetry.
   244 basis functions,   576 primitive gaussians,   244 cartesian basis functions
    82 alpha electrons       82 beta electrons
       nuclear repulsion energy      1733.5570123363 Hartrees.
 NAtoms=   45 NActive=   45 NUniq=   45 SFac= 1.00D+00 NAtFMM=   60 NAOKFM=F Big=F
 Integral buffers will be    131072 words long.
 Raffenetti 2 integral format.
 Two-electron integral symmetry is turned on.
 One-electron integrals computed using PRISM.
 NBasis=   244 RedAO= T EigKep=  7.86D-04  NBF=   244
 NBsUse=   244 1.00D-06 EigRej= -1.00D+00 NBFU=   244
 ExpMin= 1.61D-01 ExpMax= 5.48D+03 ExpMxC= 8.25D+02 IAcc=3 IRadAn=         5 AccDes= 0.00D+00
 Harris functional with IExCor=  402 and IRadAn=       5 diagonalized for initial guess.
 HarFok:  IExCor=  402 AccDes= 0.00D+00 IRadAn=         5 IDoV= 1 UseB2=F ITyADJ=14
 ICtDFT=  3500011 ScaDFX=  1.000000  1.000000  1.000000  1.000000
 FoFCou: FMM=F IPFlag=           0 FMFlag=      100000 FMFlg1=           0
         NFxFlg=           0 DoJE=T BraDBF=F KetDBF=T FulRan=T
         wScrn=  0.000000 ICntrl=       500 IOpCl=  0 I1Cent=   200000004 NGrid=           0
         NMat0=    1 NMatS0=      1 NMatT0=    0 NMatD0=    1 NMtDS0=    0 NMtDT0=    0
 Petite list used in FoFCou.
 Requested convergence on RMS density matrix=1.00D-08 within 128 cycles.
 Requested convergence on MAX density matrix=1.00D-06.
 Requested convergence on             energy=1.00D-06.
 No special actions if energy rises.
 Integral accuracy reduced to 1.0D-05 until final iterations.
 EnCoef did     4 forward-backward iterations
 EnCoef did     4 forward-backward iterations
 Problem detected with inexpensive integrals.
 Switching to full accuracy and repeating last cycle.
 EnCoef did     2 forward-backward iterations
 EnCoef did    19 forward-backward iterations
 Rare condition: small coef for last iteration:  0.000D+00
 EnCoef did   100 forward-backward iterations
 EnCoef did   100 forward-backward iterations
 EnCoef did    53 forward-backward iterations
 EnCoef did    15 forward-backward iterations
 Rare condition: small coef for last iteration:  0.000D+00
 EnCoef did   100 forward-backward iterations
 Restarting incremental Fock formation.
 SCF Done:  E(RB3LYP) =  -1029.36223227     A.U. after   31 cycles
            NFock= 31  Conv=0.28D-08     -V/T= 2.0054
 SCF density gives NOpUse=  1 NOpAll=  1.

 **********************************************************************

            Population analysis using the SCF Density.

 **********************************************************************

 Orbital symmetries:
 BldTbl:  Degeneracy threshold= 1.00D-02
       Occupied  (A) (A) (A) (A) (A) (A) (A) (A) (A) (A) (A) (A)
                 (A) (A) (A) (A) (A) (A) (A) (A) (A) (A) (A) (A)
                 (A) (A) (A) (A) (A) (A) (A) (A) (A) (A) (A) (A)
                 (A) (A) (A) (A) (A) (A) (A) (A) (A) (A) (A) (A)
                 (A) (A) (A) (A) (A) (A) (A) (A) (A) (A) (A) (A)
                 (A) (A) (A) (A) (A) (A) (A) (A) (A) (A) (A) (A)
                 (A) (A) (A) (A) (A) (A) (A) (A) (A) (A)
       Virtual   (A) (A) (A) (A) (A) (A) (A) (A) (A) (A) (A) (A)
                 (A) (A) (A) (A) (A) (A) (A) (A) (A) (A) (A) (A)
                 (A) (A) (A) (A) (A) (A) (A) (A) (A) (A) (A) (A)
                 (A) (A) (A) (A) (A) (A) (A) (A) (A) (A) (A) (A)
                 (A) (A) (A) (A) (A) (A) (A) (A) (A) (A) (A) (A)
                 (A) (A) (A) (A) (A) (A) (A) (A) (A) (A) (A) (A)
                 (A) (A) (A) (A) (A) (A) (A) (A) (A) (A) (A) (A)
                 (A) (A) (A) (A) (A) (A) (A) (A) (A) (A) (A) (A)
                 (A) (A) (A) (A) (A) (A) (A) (A) (A) (A) (A) (A)
                 (A) (A) (A) (A) (A) (A) (A) (A) (A) (A) (A) (A)
                 (A) (A) (A) (A) (A) (A) (A) (A) (A) (A) (A) (A)
                 (A) (A) (A) (A) (A) (A) (A) (A) (A) (A) (A) (A)
                 (A) (A) (A) (A) (A) (A) (A) (A) (A) (A) (A) (A)
                 (A) (A) (A) (A) (A) (A)
 The electronic state is 1-A.
 Alpha  occ. eigenvalues --  -19.32116 -19.24137 -19.23394 -14.54697 -14.52543
 Alpha  occ. eigenvalues --  -14.48780 -14.43660 -10.48880 -10.41422 -10.41141
 Alpha  occ. eigenvalues --  -10.37106 -10.36258 -10.35742 -10.34819 -10.34090
 Alpha  occ. eigenvalues --  -10.33933 -10.33374 -10.33322 -10.33109 -10.29379
 Alpha  occ. eigenvalues --  -10.27611 -10.26236  -1.20431  -1.17066  -1.15703
 Alpha  occ. eigenvalues --   -1.14915  -1.06261  -1.05780  -1.01070  -0.98193
 Alpha  occ. eigenvalues --   -0.92442  -0.90486  -0.89115  -0.88784  -0.82716
 Alpha  occ. eigenvalues --   -0.80115  -0.78562  -0.77990  -0.77138  -0.76064
 Alpha  occ. eigenvalues --   -0.73203  -0.72369  -0.71068  -0.69537  -0.67379
 Alpha  occ. eigenvalues --   -0.66294  -0.65727  -0.62884  -0.62680  -0.61859
 Alpha  occ. eigenvalues --   -0.61135  -0.59771  -0.58910  -0.58503  -0.58238
 Alpha  occ. eigenvalues --   -0.57363  -0.56781  -0.55785  -0.54862  -0.53454
 Alpha  occ. eigenvalues --   -0.52780  -0.51168  -0.51115  -0.50942  -0.50180
 Alpha  occ. eigenvalues --   -0.49919  -0.49562  -0.49236  -0.48999  -0.48170
 Alpha  occ. eigenvalues --   -0.46444  -0.44612  -0.43703  -0.42864  -0.42650
 Alpha  occ. eigenvalues --   -0.40983  -0.39261  -0.38748  -0.37244  -0.36815
 Alpha  occ. eigenvalues --   -0.34062  -0.28435
 Alpha virt. eigenvalues --   -0.26148  -0.22661  -0.16507  -0.15524  -0.11430
 Alpha virt. eigenvalues --   -0.09581  -0.09217  -0.06643  -0.04566  -0.03762
 Alpha virt. eigenvalues --   -0.02507  -0.01605  -0.00991  -0.00183   0.01181
 Alpha virt. eigenvalues --    0.01389   0.01929   0.02441   0.03253   0.03947
 Alpha virt. eigenvalues --    0.04557   0.05331   0.05794   0.06392   0.06857
 Alpha virt. eigenvalues --    0.07645   0.08131   0.08628   0.08780   0.09656
 Alpha virt. eigenvalues --    0.10452   0.11177   0.12427   0.12801   0.13722
 Alpha virt. eigenvalues --    0.14545   0.14827   0.15581   0.15840   0.16771
 Alpha virt. eigenvalues --    0.17353   0.17686   0.19358   0.20861   0.21993
 Alpha virt. eigenvalues --    0.24494   0.25217   0.26542   0.31406   0.34233
 Alpha virt. eigenvalues --    0.36167   0.37918   0.40455   0.41607   0.41956
 Alpha virt. eigenvalues --    0.42373   0.42939   0.43222   0.43724   0.43844
 Alpha virt. eigenvalues --    0.44505   0.45044   0.45359   0.46096   0.46243
 Alpha virt. eigenvalues --    0.47699   0.47908   0.49212   0.49641   0.50053
 Alpha virt. eigenvalues --    0.50742   0.50877   0.51317   0.51557   0.52837
 Alpha virt. eigenvalues --    0.53413   0.53813   0.55131   0.55410   0.55553
 Alpha virt. eigenvalues --    0.56768   0.59017   0.59366   0.60077   0.61075
 Alpha virt. eigenvalues --    0.61439   0.63302   0.63541   0.64216   0.66266
 Alpha virt. eigenvalues --    0.67438   0.69186   0.70044   0.70572   0.71225
 Alpha virt. eigenvalues --    0.71969   0.72874   0.73365   0.74197   0.74461
 Alpha virt. eigenvalues --    0.75348   0.75840   0.76245   0.77131   0.78781
 Alpha virt. eigenvalues --    0.79687   0.80650   0.80859   0.82095   0.82164
 Alpha virt. eigenvalues --    0.82974   0.83518   0.84201   0.84672   0.85078
 Alpha virt. eigenvalues --    0.85955   0.86352   0.86562   0.87251   0.87894
 Alpha virt. eigenvalues --    0.87921   0.90461   0.92102   0.93134   0.93838
 Alpha virt. eigenvalues --    0.94242   0.94627   0.95972   0.97178   0.98071
 Alpha virt. eigenvalues --    0.98297   0.99961   1.00384   1.02482   1.03911
 Alpha virt. eigenvalues --    1.05828   1.06583   1.07887   1.09685   1.10120
 Alpha virt. eigenvalues --    1.13777   1.14012   1.15253   1.16358   1.22588
 Alpha virt. eigenvalues --    1.24517   1.25509   1.27925   1.32325   1.34686
 Alpha virt. eigenvalues --    1.35598   1.38167   1.44886   1.52266   1.53245
 Alpha virt. eigenvalues --    1.54360   1.54807   1.59317   1.62862   1.67806
 Alpha virt. eigenvalues --    1.77015   2.01356
          Condensed to atoms (all electrons):
               1          2          3          4          5          6
     1  C    4.935628   0.473225  -0.022597  -0.029241  -0.029707   0.477921
     2  C    0.473225   5.028602   0.498355  -0.050613  -0.039124  -0.068737
     3  C   -0.022597   0.498355   4.877865   0.525814  -0.044948  -0.039149
     4  C   -0.029241  -0.050613   0.525814   4.880553   0.511207  -0.052164
     5  C   -0.029707  -0.039124  -0.044948   0.511207   4.903071   0.510481
     6  C    0.477921  -0.068737  -0.039149  -0.052164   0.510481   5.011517
     7  C    0.325310  -0.031296   0.004310   0.000381   0.005896  -0.025802
     8  N   -0.058306  -0.011916   0.000189  -0.000001  -0.000187   0.004932
     9  N   -0.058921   0.003680  -0.000051  -0.000021   0.001168  -0.017924
    10  H   -0.053149   0.356697  -0.019566   0.003757   0.000198   0.003896
    11  H    0.003708  -0.030894   0.360032  -0.032208   0.004736   0.000808
    12  H    0.000424   0.003809  -0.029476   0.360246  -0.030778   0.004527
    13  H    0.003134   0.000914   0.005092  -0.037445   0.358205  -0.025115
    14  H   -0.054253   0.003266   0.000419   0.004184  -0.018314   0.352802
    15  H    0.004536  -0.000046   0.000001   0.000000   0.000002  -0.000126
    16  H   -0.009698   0.011823  -0.000224   0.000022  -0.000017   0.000526
    17  H    0.002618  -0.000000   0.000001   0.000000  -0.000009  -0.000073
    18  H   -0.007755  -0.000097  -0.000001   0.000010  -0.000101   0.005997
    19  N    0.000000  -0.000000   0.000000   0.000000   0.000000   0.000000
    20  H   -0.000000   0.000000  -0.000000  -0.000000  -0.000000  -0.000000
    21  C    0.000000   0.000000  -0.000000  -0.000000  -0.000000  -0.000000
    22  H    0.000000   0.000000  -0.000000  -0.000000  -0.000000  -0.000000
    23  C    0.000000  -0.000000   0.000000   0.000000  -0.000000  -0.000000
    24  H   -0.000000   0.000000  -0.000000  -0.000000  -0.000000  -0.000000
    25  C   -0.000002  -0.000000   0.000000   0.000000  -0.000000   0.000001
    26  H   -0.000001  -0.000000  -0.000000  -0.000000   0.000000   0.000000
    27  H   -0.000004   0.000000   0.000000  -0.000000  -0.000000  -0.000005
    28  H    0.000001  -0.000000   0.000000   0.000000  -0.000000   0.000000
    29  C   -0.000000  -0.000000  -0.000000  -0.000000   0.000000   0.000000
    30  H    0.000000   0.000000  -0.000000   0.000000  -0.000000  -0.000000
    31  H    0.000000  -0.000000   0.000000   0.000000  -0.000000   0.000000
    32  H   -0.000000  -0.000000   0.000000  -0.000000   0.000000   0.000000
    33  C   -0.000000  -0.000000   0.000000   0.000000   0.000000   0.000000
    34  O   -0.000000  -0.000000   0.000000   0.000000  -0.000000   0.000000
    35  N    0.000000   0.000000  -0.000000  -0.000000  -0.000000  -0.000000
    36  H   -0.000000   0.000000  -0.000000  -0.000000  -0.000000  -0.000000
    37  C    0.000000  -0.000000   0.000000   0.000000  -0.000000   0.000000
    38  H   -0.000000   0.000000  -0.000000  -0.000000  -0.000000   0.000000
    39  C   -0.000000   0.000000  -0.000000  -0.000000   0.000000  -0.000000
    40  H    0.000000   0.000000  -0.000000  -0.000000  -0.000000  -0.000000
    41  H   -0.000000   0.000000  -0.000000  -0.000000   0.000000   0.000000
    42  O    0.000000  -0.000000  -0.000000   0.000000  -0.000000  -0.000000
    43  H   -0.000000   0.000000  -0.000000  -0.000000   0.000000   0.000000
    44  C   -0.000003   0.000000   0.000000  -0.000000   0.000000  -0.000000
    45  O    0.000049   0.000001   0.000000   0.000000  -0.000000  -0.000010
               7          8          9         10         11         12
     1  C    0.325310  -0.058306  -0.058921  -0.053149   0.003708   0.000424
     2  C   -0.031296  -0.011916   0.003680   0.356697  -0.030894   0.003809
     3  C    0.004310   0.000189  -0.000051  -0.019566   0.360032  -0.029476
     4  C    0.000381  -0.000001  -0.000021   0.003757  -0.032208   0.360246
     5  C    0.005896  -0.000187   0.001168   0.000198   0.004736  -0.030778
     6  C   -0.025802   0.004932  -0.017924   0.003896   0.000808   0.004527
     7  C    4.657252   0.310919   0.356326  -0.006200  -0.000135   0.000005
     8  N    0.310919   6.879390  -0.097630  -0.000729   0.000002   0.000000
     9  N    0.356326  -0.097630   6.981863  -0.000017   0.000000  -0.000000
    10  H   -0.006200  -0.000729  -0.000017   0.544399  -0.003629  -0.000109
    11  H   -0.000135   0.000002   0.000000  -0.003629   0.524436  -0.003108
    12  H    0.000005   0.000000  -0.000000  -0.000109  -0.003108   0.506811
    13  H   -0.000173   0.000001   0.000006   0.000009  -0.000196  -0.004795
    14  H   -0.007302   0.000241  -0.000687  -0.000147   0.000007  -0.000155
    15  H   -0.019157   0.316207  -0.002889  -0.000028  -0.000000   0.000000
    16  H   -0.034172   0.305980   0.004748   0.009546   0.000000  -0.000000
    17  H   -0.016981  -0.004206   0.262006  -0.000001  -0.000000   0.000000
    18  H   -0.018270   0.004024   0.308369  -0.000002   0.000000  -0.000000
    19  N   -0.000000   0.000000  -0.000000  -0.000000   0.000000   0.000000
    20  H   -0.000000   0.000000  -0.000000  -0.000000   0.000000   0.000000
    21  C   -0.000000   0.000000  -0.000016   0.000000   0.000000   0.000000
    22  H   -0.000000   0.000000  -0.000017   0.000000   0.000000   0.000000
    23  C   -0.000000  -0.000000   0.000159  -0.000000  -0.000000   0.000000
    24  H    0.000000   0.000000  -0.000002  -0.000000   0.000000   0.000000
    25  C    0.000187  -0.000015  -0.000140  -0.000000   0.000000   0.000000
    26  H   -0.000070   0.000020  -0.001359  -0.000000   0.000000  -0.000000
    27  H    0.000170  -0.000002  -0.000395  -0.000000  -0.000000   0.000000
    28  H   -0.000003  -0.000001   0.000717   0.000000  -0.000000   0.000000
    29  C    0.000000   0.000000  -0.000000  -0.000000  -0.000000  -0.000000
    30  H    0.000000   0.000000  -0.000001   0.000000   0.000000   0.000000
    31  H   -0.000000  -0.000000   0.000000  -0.000000  -0.000000  -0.000000
    32  H    0.000000   0.000000   0.000000  -0.000000  -0.000000  -0.000000
    33  C    0.000001  -0.000000   0.000025   0.000000  -0.000000   0.000000
    34  O    0.000000  -0.000000   0.000001   0.000000   0.000000   0.000000
    35  N   -0.000002   0.000000  -0.000088   0.000000  -0.000000   0.000000
    36  H   -0.000000   0.000000  -0.000014   0.000000   0.000000   0.000000
    37  C    0.000011  -0.000002   0.000053   0.000000  -0.000000  -0.000000
    38  H   -0.000000   0.000000  -0.000001  -0.000000   0.000000   0.000000
    39  C   -0.000000   0.000000  -0.000000   0.000000  -0.000000   0.000000
    40  H    0.000000  -0.000000  -0.000000   0.000000   0.000000   0.000000
    41  H   -0.000000   0.000000  -0.000000  -0.000000   0.000000   0.000000
    42  O    0.000000  -0.000000   0.000000   0.000000   0.000000   0.000000
    43  H   -0.000000   0.000000  -0.000000   0.000000   0.000000   0.000000
    44  C   -0.000001  -0.000001   0.000641   0.000000   0.000000   0.000000
    45  O    0.002063  -0.000532  -0.018572   0.000000   0.000000   0.000000
              13         14         15         16         17         18
     1  C    0.003134  -0.054253   0.004536  -0.009698   0.002618  -0.007755
     2  C    0.000914   0.003266  -0.000046   0.011823  -0.000000  -0.000097
     3  C    0.005092   0.000419   0.000001  -0.000224   0.000001  -0.000001
     4  C   -0.037445   0.004184   0.000000   0.000022   0.000000   0.000010
     5  C    0.358205  -0.018314   0.000002  -0.000017  -0.000009  -0.000101
     6  C   -0.025115   0.352802  -0.000126   0.000526  -0.000073   0.005997
     7  C   -0.000173  -0.007302  -0.019157  -0.034172  -0.016981  -0.018270
     8  N    0.000001   0.000241   0.316207   0.305980  -0.004206   0.004024
     9  N    0.000006  -0.000687  -0.002889   0.004748   0.262006   0.308369
    10  H    0.000009  -0.000147  -0.000028   0.009546  -0.000001  -0.000002
    11  H   -0.000196   0.000007  -0.000000   0.000000  -0.000000   0.000000
    12  H   -0.004795  -0.000155   0.000000  -0.000000   0.000000  -0.000000
    13  H    0.529503  -0.003332  -0.000000   0.000000  -0.000000  -0.000013
    14  H   -0.003332   0.570523  -0.000003  -0.000014   0.000182   0.012168
    15  H   -0.000000  -0.000003   0.337921  -0.015739   0.002225  -0.000014
    16  H    0.000000  -0.000014  -0.015739   0.367667   0.000069  -0.000138
    17  H   -0.000000   0.000182   0.002225   0.000069   0.320387  -0.015822
    18  H   -0.000013   0.012168  -0.000014  -0.000138  -0.015822   0.350881
    19  N   -0.000000  -0.000000  -0.000000   0.000000   0.000000  -0.000000
    20  H    0.000000   0.000000   0.000000   0.000000   0.000000  -0.000000
    21  C    0.000000   0.000000   0.000000   0.000000   0.000142  -0.000000
    22  H    0.000000   0.000000  -0.000000   0.000000   0.000107   0.000001
    23  C   -0.000000   0.000000   0.000000   0.000000  -0.000256  -0.000019
    24  H    0.000000  -0.000000  -0.000000   0.000000   0.000011   0.000000
    25  C   -0.000000  -0.000004   0.000022   0.000000   0.001807   0.000341
    26  H   -0.000000   0.000001   0.000095   0.000000   0.007362  -0.000124
    27  H    0.000000  -0.000029  -0.000011   0.000000   0.001155   0.001668
    28  H    0.000000  -0.000000   0.000011  -0.000000  -0.000524   0.000021
    29  C    0.000000   0.000000   0.000000  -0.000000  -0.000005  -0.000000
    30  H   -0.000000   0.000000   0.000000   0.000000  -0.000000   0.000002
    31  H   -0.000000  -0.000000  -0.000000  -0.000000  -0.000000  -0.000000
    32  H    0.000000  -0.000000   0.000000  -0.000000  -0.000000   0.000000
    33  C   -0.000000  -0.000000   0.000000   0.000000  -0.000312   0.000000
    34  O   -0.000000  -0.000000   0.000000  -0.000000  -0.000026   0.000000
    35  N    0.000000   0.000000  -0.000000   0.000000   0.001158  -0.000006
    36  H   -0.000000   0.000000  -0.000000   0.000000   0.000146   0.000001
    37  C    0.000000  -0.000000   0.000004  -0.000000  -0.000974   0.000001
    38  H   -0.000000   0.000000  -0.000001   0.000000   0.000024  -0.000000
    39  C    0.000000   0.000000  -0.000000  -0.000000   0.000004  -0.000000
    40  H    0.000000  -0.000000   0.000000  -0.000000   0.000000   0.000000
    41  H   -0.000000   0.000000  -0.000000   0.000000   0.000001  -0.000000
    42  O   -0.000000  -0.000000  -0.000000  -0.000000  -0.000000   0.000000
    43  H    0.000000   0.000000  -0.000000   0.000000   0.000000   0.000000
    44  C   -0.000000   0.000000   0.000026  -0.000001  -0.000793  -0.000005
    45  O   -0.000000  -0.000002   0.001357  -0.000017   0.046295   0.000243
              19         20         21         22         23         24
     1  C    0.000000  -0.000000   0.000000   0.000000   0.000000  -0.000000
     2  C   -0.000000   0.000000   0.000000   0.000000  -0.000000   0.000000
     3  C    0.000000  -0.000000  -0.000000  -0.000000   0.000000  -0.000000
     4  C    0.000000  -0.000000  -0.000000  -0.000000   0.000000  -0.000000
     5  C    0.000000  -0.000000  -0.000000  -0.000000  -0.000000  -0.000000
     6  C    0.000000  -0.000000  -0.000000  -0.000000  -0.000000  -0.000000
     7  C   -0.000000  -0.000000  -0.000000  -0.000000  -0.000000   0.000000
     8  N    0.000000   0.000000   0.000000   0.000000  -0.000000   0.000000
     9  N   -0.000000  -0.000000  -0.000016  -0.000017   0.000159  -0.000002
    10  H   -0.000000  -0.000000   0.000000   0.000000  -0.000000  -0.000000
    11  H    0.000000   0.000000   0.000000   0.000000  -0.000000   0.000000
    12  H    0.000000   0.000000   0.000000   0.000000   0.000000   0.000000
    13  H   -0.000000   0.000000   0.000000   0.000000  -0.000000   0.000000
    14  H   -0.000000   0.000000   0.000000   0.000000   0.000000  -0.000000
    15  H   -0.000000   0.000000   0.000000  -0.000000   0.000000  -0.000000
    16  H    0.000000   0.000000   0.000000   0.000000   0.000000   0.000000
    17  H    0.000000   0.000000   0.000142   0.000107  -0.000256   0.000011
    18  H   -0.000000  -0.000000  -0.000000   0.000001  -0.000019   0.000000
    19  N    6.974897   0.277842   0.311676  -0.054664  -0.060234  -0.002778
    20  H    0.277842   0.474953  -0.061770   0.004931  -0.003753   0.001083
    21  C    0.311676  -0.061770   5.631022   0.350348   0.233417  -0.041532
    22  H   -0.054664   0.004931   0.350348   0.633693  -0.064661   0.007035
    23  C   -0.060234  -0.003753   0.233417  -0.064661   5.223948   0.387646
    24  H   -0.002778   0.001083  -0.041532   0.007035   0.387646   0.561772
    25  C    0.005838   0.000459  -0.047666  -0.001348   0.277932  -0.031671
    26  H    0.000144   0.000005  -0.007037   0.000753  -0.029258  -0.001092
    27  H   -0.000006   0.000009  -0.003208   0.005165  -0.037988   0.004354
    28  H   -0.000127  -0.000013   0.004281  -0.000025  -0.023563  -0.002559
    29  C   -0.010223  -0.002261  -0.053253  -0.005373   0.335641  -0.049650
    30  H   -0.000054   0.000024  -0.005712   0.005992  -0.032944   0.005154
    31  H    0.007884   0.011846  -0.005152  -0.001325  -0.057296  -0.004059
    32  H    0.000134  -0.000232   0.004578  -0.000158  -0.024928  -0.004810
    33  C   -0.058642   0.003166   0.062658  -0.062550  -0.017539  -0.006521
    34  O   -0.000353  -0.000043  -0.113262   0.002534   0.005509   0.003480
    35  N    0.001051  -0.000170  -0.136309   0.000233   0.000223   0.000275
    36  H   -0.000219   0.000009   0.004085   0.007652  -0.000337   0.000017
    37  C   -0.000100   0.000005   0.004318  -0.000501  -0.000190  -0.000003
    38  H    0.000018   0.000000   0.001531   0.000017  -0.000052   0.000001
    39  C    0.000003  -0.000000  -0.000358  -0.000034   0.000002  -0.000000
    40  H    0.000010  -0.000000  -0.000076  -0.000024   0.000002  -0.000000
    41  H   -0.000001   0.000000   0.000062   0.000030  -0.000000   0.000000
    42  O   -0.000000   0.000000   0.000001  -0.000000   0.000000  -0.000000
    43  H    0.000000   0.000000   0.000000   0.000000  -0.000000   0.000000
    44  C   -0.000002  -0.000000  -0.000438  -0.000083   0.000051  -0.000002
    45  O    0.000000   0.000000   0.000096   0.000085  -0.000025   0.000002
              25         26         27         28         29         30
     1  C   -0.000002  -0.000001  -0.000004   0.000001  -0.000000   0.000000
     2  C   -0.000000  -0.000000   0.000000  -0.000000  -0.000000   0.000000
     3  C    0.000000  -0.000000   0.000000   0.000000  -0.000000  -0.000000
     4  C    0.000000  -0.000000  -0.000000   0.000000  -0.000000   0.000000
     5  C   -0.000000   0.000000  -0.000000  -0.000000   0.000000  -0.000000
     6  C    0.000001   0.000000  -0.000005   0.000000   0.000000  -0.000000
     7  C    0.000187  -0.000070   0.000170  -0.000003   0.000000   0.000000
     8  N   -0.000015   0.000020  -0.000002  -0.000001   0.000000   0.000000
     9  N   -0.000140  -0.001359  -0.000395   0.000717  -0.000000  -0.000001
    10  H   -0.000000  -0.000000  -0.000000   0.000000  -0.000000   0.000000
    11  H    0.000000   0.000000  -0.000000  -0.000000  -0.000000   0.000000
    12  H    0.000000  -0.000000   0.000000   0.000000  -0.000000   0.000000
    13  H   -0.000000  -0.000000   0.000000   0.000000   0.000000  -0.000000
    14  H   -0.000004   0.000001  -0.000029  -0.000000   0.000000   0.000000
    15  H    0.000022   0.000095  -0.000011   0.000011   0.000000   0.000000
    16  H    0.000000   0.000000   0.000000  -0.000000  -0.000000   0.000000
    17  H    0.001807   0.007362   0.001155  -0.000524  -0.000005  -0.000000
    18  H    0.000341  -0.000124   0.001668   0.000021  -0.000000   0.000002
    19  N    0.005838   0.000144  -0.000006  -0.000127  -0.010223  -0.000054
    20  H    0.000459   0.000005   0.000009  -0.000013  -0.002261   0.000024
    21  C   -0.047666  -0.007037  -0.003208   0.004281  -0.053253  -0.005712
    22  H   -0.001348   0.000753   0.005165  -0.000025  -0.005373   0.005992
    23  C    0.277932  -0.029258  -0.037988  -0.023563   0.335641  -0.032944
    24  H   -0.031671  -0.001092   0.004354  -0.002559  -0.049650   0.005154
    25  C    5.217578   0.354391   0.363093   0.363963  -0.062160  -0.007008
    26  H    0.354391   0.591931  -0.039742  -0.032669   0.004784   0.000089
    27  H    0.363093  -0.039742   0.643810  -0.036747  -0.005670   0.004991
    28  H    0.363963  -0.032669  -0.036747   0.572171  -0.002058  -0.000289
    29  C   -0.062160   0.004784  -0.005670  -0.002058   5.147560   0.374780
    30  H   -0.007008   0.000089   0.004991  -0.000289   0.374780   0.575712
    31  H    0.008740  -0.000249   0.000020  -0.000165   0.356167  -0.027940
    32  H   -0.003425  -0.000051  -0.000234   0.001913   0.378701  -0.031718
    33  C   -0.004110   0.008222  -0.001795  -0.000212   0.006099  -0.000077
    34  O   -0.006788   0.003994   0.000142   0.000005   0.000143   0.000000
    35  N    0.002920  -0.002611   0.000107   0.000125  -0.000127  -0.000010
    36  H    0.000017   0.000067   0.000225  -0.000002  -0.000028   0.000002
    37  C    0.000049  -0.000378  -0.000026  -0.000002   0.000004   0.000000
    38  H    0.000008   0.000045   0.000001   0.000000   0.000000   0.000000
    39  C   -0.000003   0.000015   0.000000   0.000000   0.000000  -0.000000
    40  H    0.000000   0.000000  -0.000000   0.000000   0.000000   0.000000
    41  H   -0.000000   0.000000   0.000000  -0.000000  -0.000000   0.000000
    42  O   -0.000000   0.000000  -0.000000  -0.000000   0.000000   0.000000
    43  H    0.000000   0.000000   0.000000   0.000000  -0.000000  -0.000000
    44  C    0.000056  -0.000115  -0.000017  -0.000001   0.000000  -0.000000
    45  O   -0.001185   0.002978   0.000081   0.000013  -0.000000   0.000000
              31         32         33         34         35         36
     1  C    0.000000  -0.000000  -0.000000  -0.000000   0.000000  -0.000000
     2  C   -0.000000  -0.000000  -0.000000  -0.000000   0.000000   0.000000
     3  C    0.000000   0.000000   0.000000   0.000000  -0.000000  -0.000000
     4  C    0.000000  -0.000000   0.000000   0.000000  -0.000000  -0.000000
     5  C   -0.000000   0.000000   0.000000  -0.000000  -0.000000  -0.000000
     6  C    0.000000   0.000000   0.000000   0.000000  -0.000000  -0.000000
     7  C   -0.000000   0.000000   0.000001   0.000000  -0.000002  -0.000000
     8  N   -0.000000   0.000000  -0.000000  -0.000000   0.000000   0.000000
     9  N    0.000000   0.000000   0.000025   0.000001  -0.000088  -0.000014
    10  H   -0.000000  -0.000000   0.000000   0.000000   0.000000   0.000000
    11  H   -0.000000  -0.000000  -0.000000   0.000000  -0.000000   0.000000
    12  H   -0.000000  -0.000000   0.000000   0.000000   0.000000   0.000000
    13  H   -0.000000   0.000000  -0.000000  -0.000000   0.000000  -0.000000
    14  H   -0.000000  -0.000000  -0.000000  -0.000000   0.000000   0.000000
    15  H   -0.000000   0.000000   0.000000   0.000000  -0.000000  -0.000000
    16  H   -0.000000  -0.000000   0.000000  -0.000000   0.000000   0.000000
    17  H   -0.000000  -0.000000  -0.000312  -0.000026   0.001158   0.000146
    18  H   -0.000000   0.000000   0.000000   0.000000  -0.000006   0.000001
    19  N    0.007884   0.000134  -0.058642  -0.000353   0.001051  -0.000219
    20  H    0.011846  -0.000232   0.003166  -0.000043  -0.000170   0.000009
    21  C   -0.005152   0.004578   0.062658  -0.113262  -0.136309   0.004085
    22  H   -0.001325  -0.000158  -0.062550   0.002534   0.000233   0.007652
    23  C   -0.057296  -0.024928  -0.017539   0.005509   0.000223  -0.000337
    24  H   -0.004059  -0.004810  -0.006521   0.003480   0.000275   0.000017
    25  C    0.008740  -0.003425  -0.004110  -0.006788   0.002920   0.000017
    26  H   -0.000249  -0.000051   0.008222   0.003994  -0.002611   0.000067
    27  H    0.000020  -0.000234  -0.001795   0.000142   0.000107   0.000225
    28  H   -0.000165   0.001913  -0.000212   0.000005   0.000125  -0.000002
    29  C    0.356167   0.378701   0.006099   0.000143  -0.000127  -0.000028
    30  H   -0.027940  -0.031718  -0.000077   0.000000  -0.000010   0.000002
    31  H    0.613937  -0.034628   0.000626  -0.000003  -0.000003  -0.000000
    32  H   -0.034628   0.548156  -0.000099   0.000000   0.000001  -0.000000
    33  C    0.000626  -0.000099   4.909217   0.592708  -0.011085  -0.010488
    34  O   -0.000003   0.000000   0.592708   8.057732  -0.139419   0.002400
    35  N   -0.000003   0.000001  -0.011085  -0.139419   7.687194   0.307973
    36  H   -0.000000  -0.000000  -0.010488   0.002400   0.307973   0.382771
    37  C    0.000000  -0.000000  -0.014762   0.002845   0.041556  -0.041373
    38  H   -0.000000  -0.000000   0.006194   0.014099  -0.032276   0.003182
    39  C   -0.000000  -0.000000   0.002340   0.000010  -0.053333   0.000169
    40  H    0.000000   0.000000   0.002157   0.000451   0.004655  -0.000274
    41  H   -0.000000  -0.000000  -0.000298  -0.000034   0.003067   0.006096
    42  O    0.000000   0.000000  -0.000035  -0.000001   0.004714  -0.000009
    43  H   -0.000000   0.000000   0.000004  -0.000017  -0.000080   0.000024
    44  C    0.000000   0.000000   0.002639   0.000199  -0.046173  -0.000462
    45  O   -0.000000  -0.000000   0.000359  -0.000033  -0.001484   0.001568
              37         38         39         40         41         42
     1  C    0.000000  -0.000000  -0.000000   0.000000  -0.000000   0.000000
     2  C   -0.000000   0.000000   0.000000   0.000000   0.000000  -0.000000
     3  C    0.000000  -0.000000  -0.000000  -0.000000  -0.000000  -0.000000
     4  C    0.000000  -0.000000  -0.000000  -0.000000  -0.000000   0.000000
     5  C   -0.000000  -0.000000   0.000000  -0.000000   0.000000  -0.000000
     6  C    0.000000   0.000000  -0.000000  -0.000000   0.000000  -0.000000
     7  C    0.000011  -0.000000  -0.000000   0.000000  -0.000000   0.000000
     8  N   -0.000002   0.000000   0.000000  -0.000000   0.000000  -0.000000
     9  N    0.000053  -0.000001  -0.000000  -0.000000  -0.000000   0.000000
    10  H    0.000000  -0.000000   0.000000   0.000000  -0.000000   0.000000
    11  H   -0.000000   0.000000  -0.000000   0.000000   0.000000   0.000000
    12  H   -0.000000   0.000000   0.000000   0.000000   0.000000   0.000000
    13  H    0.000000  -0.000000   0.000000   0.000000  -0.000000  -0.000000
    14  H   -0.000000   0.000000   0.000000  -0.000000   0.000000  -0.000000
    15  H    0.000004  -0.000001  -0.000000   0.000000  -0.000000  -0.000000
    16  H   -0.000000   0.000000  -0.000000  -0.000000   0.000000  -0.000000
    17  H   -0.000974   0.000024   0.000004   0.000000   0.000001  -0.000000
    18  H    0.000001  -0.000000  -0.000000   0.000000  -0.000000   0.000000
    19  N   -0.000100   0.000018   0.000003   0.000010  -0.000001  -0.000000
    20  H    0.000005   0.000000  -0.000000  -0.000000   0.000000   0.000000
    21  C    0.004318   0.001531  -0.000358  -0.000076   0.000062   0.000001
    22  H   -0.000501   0.000017  -0.000034  -0.000024   0.000030  -0.000000
    23  C   -0.000190  -0.000052   0.000002   0.000002  -0.000000   0.000000
    24  H   -0.000003   0.000001  -0.000000  -0.000000   0.000000  -0.000000
    25  C    0.000049   0.000008  -0.000003   0.000000  -0.000000  -0.000000
    26  H   -0.000378   0.000045   0.000015   0.000000   0.000000   0.000000
    27  H   -0.000026   0.000001   0.000000  -0.000000   0.000000  -0.000000
    28  H   -0.000002   0.000000   0.000000   0.000000  -0.000000  -0.000000
    29  C    0.000004   0.000000   0.000000   0.000000  -0.000000   0.000000
    30  H    0.000000   0.000000  -0.000000   0.000000   0.000000   0.000000
    31  H    0.000000  -0.000000  -0.000000   0.000000  -0.000000   0.000000
    32  H   -0.000000  -0.000000  -0.000000   0.000000  -0.000000   0.000000
    33  C   -0.014762   0.006194   0.002340   0.002157  -0.000298  -0.000035
    34  O    0.002845   0.014099   0.000010   0.000451  -0.000034  -0.000001
    35  N    0.041556  -0.032276  -0.053333   0.004655   0.003067   0.004714
    36  H   -0.041373   0.003182   0.000169  -0.000274   0.006096  -0.000009
    37  C    5.803312   0.357579   0.153118  -0.065956  -0.075063  -0.082085
    38  H    0.357579   0.469062  -0.026940  -0.006503   0.006106   0.000538
    39  C    0.153118  -0.026940   4.996832   0.384062   0.376666   0.239306
    40  H   -0.065956  -0.006503   0.384062   0.585737  -0.039217  -0.040353
    41  H   -0.075063   0.006106   0.376666  -0.039217   0.609763  -0.036586
    42  O   -0.082085   0.000538   0.239306  -0.040353  -0.036586   8.219343
    43  H   -0.003003   0.004542  -0.039447  -0.010144   0.007953   0.250310
    44  C    0.131926  -0.041360  -0.034200   0.006201  -0.011204   0.009115
    45  O   -0.076916  -0.001865   0.002953  -0.000085   0.000167   0.000005
              43         44         45
     1  C   -0.000000  -0.000003   0.000049
     2  C    0.000000   0.000000   0.000001
     3  C   -0.000000   0.000000   0.000000
     4  C   -0.000000  -0.000000   0.000000
     5  C    0.000000   0.000000  -0.000000
     6  C    0.000000  -0.000000  -0.000010
     7  C   -0.000000  -0.000001   0.002063
     8  N    0.000000  -0.000001  -0.000532
     9  N   -0.000000   0.000641  -0.018572
    10  H    0.000000   0.000000   0.000000
    11  H    0.000000   0.000000   0.000000
    12  H    0.000000   0.000000   0.000000
    13  H    0.000000  -0.000000  -0.000000
    14  H    0.000000   0.000000  -0.000002
    15  H   -0.000000   0.000026   0.001357
    16  H    0.000000  -0.000001  -0.000017
    17  H    0.000000  -0.000793   0.046295
    18  H    0.000000  -0.000005   0.000243
    19  N    0.000000  -0.000002   0.000000
    20  H    0.000000  -0.000000   0.000000
    21  C    0.000000  -0.000438   0.000096
    22  H    0.000000  -0.000083   0.000085
    23  C   -0.000000   0.000051  -0.000025
    24  H    0.000000  -0.000002   0.000002
    25  C    0.000000   0.000056  -0.001185
    26  H    0.000000  -0.000115   0.002978
    27  H    0.000000  -0.000017   0.000081
    28  H    0.000000  -0.000001   0.000013
    29  C   -0.000000   0.000000  -0.000000
    30  H   -0.000000  -0.000000   0.000000
    31  H   -0.000000   0.000000  -0.000000
    32  H    0.000000   0.000000  -0.000000
    33  C    0.000004   0.002639   0.000359
    34  O   -0.000017   0.000199  -0.000033
    35  N   -0.000080  -0.046173  -0.001484
    36  H    0.000024  -0.000462   0.001568
    37  C   -0.003003   0.131926  -0.076916
    38  H    0.004542  -0.041360  -0.001865
    39  C   -0.039447  -0.034200   0.002953
    40  H   -0.010144   0.006201  -0.000085
    41  H    0.007953  -0.011204   0.000167
    42  O    0.250310   0.009115   0.000005
    43  H    0.417556  -0.000969  -0.000004
    44  C   -0.000969   5.274623   0.340754
    45  O   -0.000004   0.340754   8.124066
 Mulliken charges:
               1
     1  C    0.097082
     2  C   -0.147651
     3  C   -0.116067
     4  C   -0.084479
     5  C   -0.131781
     6  C   -0.144303
     7  C    0.496734
     8  N   -0.648379
     9  N   -0.721016
    10  H    0.165074
    11  H    0.176438
    12  H    0.192599
    13  H    0.174205
    14  H    0.140449
    15  H    0.375607
    16  H    0.359639
    17  H    0.394284
    18  H    0.358638
    19  N   -0.392093
    20  H    0.293909
    21  C   -0.132425
    22  H    0.172187
    23  C   -0.111486
    24  H    0.173849
    25  C   -0.431878
    26  H    0.139860
    27  H    0.100888
    28  H    0.155739
    29  C   -0.413070
    30  H    0.139006
    31  H    0.131601
    32  H    0.166798
    33  C    0.592109
    34  O   -0.426273
    35  N   -0.632076
    36  H    0.336803
    37  C   -0.133451
    38  H    0.246049
    39  C   -0.001166
    40  H    0.179356
    41  H    0.152491
    42  O   -0.564264
    43  H    0.373273
    44  C    0.369596
    45  O   -0.422405
 Sum of Mulliken charges =   1.00000
 Mulliken charges with hydrogens summed into heavy atoms:
               1
     1  C    0.097082
     2  C    0.017423
     3  C    0.060371
     4  C    0.108120
     5  C    0.042424
     6  C   -0.003854
     7  C    0.496734
     8  N    0.086867
     9  N    0.031906
    19  N   -0.098184
    21  C    0.039762
    23  C    0.062363
    25  C   -0.035391
    29  C    0.024335
    33  C    0.592109
    34  O   -0.426273
    35  N   -0.295273
    37  C    0.112598
    39  C    0.330681
    42  O   -0.190991
    44  C    0.369596
    45  O   -0.422405
 DipInt: DoE/N= T F RetVal/Mat= T F Init=T NMatP=  1 IDeriv=0 Min/MaxMlt=  0  4
 Entering OneElI...
 OneElI was handed  6710731073 working-precision words.
 Multipole integrals L=0 to 4 MinM= 0 MaxM= 0.
 Requested accuracy = 0.1000D-12
 PrtBox:  NBox=     1 Levels=  1 BoxLen=   35.86 SMaxX=       23.93
          Shift=           13.833987            9.064222            5.497271
 Box      1 Number                   0 centers from      1 to    112:
 ShPair: Thresh= 1.00D-13 NBox=     1 BxSize= 3.59D+01 RnKept= 2.12D+01
         NSMCal=                 6328 NSMKep=                4458
 PrmmSu-InSpLW:  IPartL=    0 NPrtUS=    1 NPrtUL=    1 DoSpLW=F IThBeg=    0 IThEnd=    0 NThAct=    1.
 PrSmSu:  IncTry=   512 NBBP=           4458 NTPThr=   100 NPartT=    1 Incr=          44 LDynOK=F GPUOK=F.
 PrsmSu:  NPrtUS=   1 ThrOK=F IAlg=2 LenDen=           0 ISkipM=0 DoSpLW=F IThBeg=    0 IThEnd=    0.
 Prism:   IPart=     0 DynPar=F LinDyn=F Incr=          44.
 PRISM was handed  6710357319 working-precision words and  4458 shell-pairs
 IPart=  0 NShTot=        4458 NBatch=          44 AvBLen=       101.3
 PrsmSu-ThDecC:  IPartSL=    0    0 NPrtUSL=    1    1 IThBeg=    0 IThEnd=    0 CPU=   -1 GPU=   -1 NThAct=    1.
 PrSmSu:  NxtVal=             45.
 Electronic moments (au):
       -164.00000000         -4.28562758         -0.66869452          0.02222535
      -7924.09893226      -2374.81488019       -693.47936250         -2.35157709
         -2.52763968          7.87010706      25730.03921581      -2155.91473452
       -267.28129291     -11110.67739548       1803.11365698       4596.66303902
       2051.92908707        198.92008135       1334.96710740        512.53550686
    -693306.28681932    -107215.73820235      -9286.75637905      23850.31640486
     -33045.09272306     -11059.96369620       3042.99605217      -1562.27825062
       -295.88365202     -76552.43154971     -39681.51749367      -5221.53962042
      -5091.72478988       8647.23522068       -987.25564556
 Electronic spatial extent (au):  <R**2>=          10992.3932
 DipInt: DoE/N= F T RetVal/Mat= T F Init=T NMatP=  1 IDeriv=0 Min/MaxMlt=  0  4
 Nuclear    moments (au):
        165.00000000         -0.00000000         -0.00000000          0.00000000
       7884.10617662       2284.35823565        610.62955645          0.00000000
         -0.00000000         -0.00000000     -26331.41462670       2075.06923819
        284.90555689      11246.57255792      -1737.99759769      -4629.65814438
      -2142.95232702       -174.69999357      -1292.14767583       -522.07445601
     672108.32998122      98810.66338094       7255.52633015     -24222.13759371
      33863.28950668      10875.76518546      -2650.39851273       1531.41860683
        380.74816985      71407.59254229      35209.02509132       3508.84434724
       5448.35258165      -8414.09651230       1024.41964772
 Total      moments (au):
          1.00000000         -4.28562758         -0.66869452          0.02222535
        -39.99275564        -90.45664454        -82.84980606         -2.35157709
         -2.52763968          7.87010706       -601.37541089        -80.84549633
         17.62426399        135.89516244         65.11605929        -32.99510536
        -91.02323995         24.22008778         42.81943157         -9.53894915
     -21197.95683810      -8405.07482141      -2031.23004891       -371.82118885
        818.19678363       -184.19851073        392.59753944        -30.85964379
         84.86451783      -5144.83900743      -4472.49240235      -1712.69527317
        356.62779177        233.13870838         37.16400216
 Traceless Quadrup. (au):
         31.10697977        -19.35690913        -11.75007064         -2.35157709
         -2.52763968          7.87010706
 Charge=              1.0000 electrons
 Dipole moment (field-independent basis, Debye):
    X=            -10.8930    Y=             -1.6997    Z=              0.0565  Tot=             11.0249
 Quadrupole moment (field-independent basis, Debye-Ang):
   XX=            -53.7916   YY=           -121.6673   ZZ=           -111.4358
   XY=             -3.1630   XZ=             -3.3998   YZ=             10.5856
 Traceless Quadrupole moment (field-independent basis, Debye-Ang):
   XX=             41.8400   YY=            -26.0357   ZZ=            -15.8042
   XY=             -3.1630   XZ=             -3.3998   YZ=             10.5856
 Octapole moment (field-independent basis, Debye-Ang**2):
  XXX=           -428.0358  YYY=            -57.5427  ZZZ=             12.5443  XYY=             96.7249
  XXY=             46.3471  XXZ=            -23.4846  XZZ=            -64.7868  YZZ=             17.2389
  YYZ=             30.4772  XYZ=             -6.7895
 Hexadecapole moment (field-independent basis, Debye-Ang**3):
 XXXX=          -7984.1670 YYYY=          -3165.7542 ZZZZ=           -765.0586 XXXY=           -140.0457
 XXXZ=            308.1721 YYYX=            -69.3780 YYYZ=            147.8711 ZZZX=            -11.6232
 ZZZY=             31.9640 XXYY=          -1937.7931 XXZZ=          -1684.5551 YYZZ=           -645.0832
 XXYZ=            134.3231 YYXZ=             87.8112 ZZXY=             13.9977
 N-N= 1.733557012336D+03 E-N=-5.845584339635D+03  KE= 1.023804926680D+03
 Entering OneElI...
 OneElI was handed  6710759549 working-precision words.
 Calculate electrostatic properties
    NBasis =   244  MinDer = 0  MaxDer = 0
    NGrid  =    45  NMatD  =   1
 Requested accuracy = 0.1000D-12
 PrtBox:  NBox=     1 Levels=  1 BoxLen=   29.89 SMaxX=       23.93
          Shift=           13.833987            9.064222            5.497271
 Box      1 Number                   0 centers from      1 to    112:
 ShPair: Thresh= 1.00D-13 NBox=     1 BxSize= 2.99D+01 RnKept= 1.86D+01
         NSMCal=                 6328 NSMKep=                3790
 PrmmSu-InSpLW:  IPartL=    0 NPrtUS=   12 NPrtUL=    1 DoSpLW=F IThBeg=    0 IThEnd=   11 NThAct=   12.
 PrSmSu:  IncTry=   512 NBBP=         170550 NTPThr=   100 NPartT=   12 Incr=         142 LDynOK=F GPUOK=F.
 PrsmSu:  NPrtUS=  12 ThrOK=T IAlg=2 LenDen=           0 ISkipM=0 DoSpLW=F IThBeg=    0 IThEnd=   11.
 Prism:   IPart=     0 DynPar=F LinDyn=F Incr=         142.
 PRISM was handed   559088358 working-precision words and  3790 shell-pairs
 PRISM was handed   559088358 working-precision words and  3790 shell-pairs
 PRISM was handed   559088358 working-precision words and  3790 shell-pairs
 PRISM was handed   559088358 working-precision words and  3790 shell-pairs
 PRISM was handed   559088358 working-precision words and  3790 shell-pairs
 PRISM was handed   559088358 working-precision words and  3790 shell-pairs
 PRISM was handed   559088358 working-precision words and  3790 shell-pairs
 PRISM was handed   559088358 working-precision words and  3790 shell-pairs
 PRISM was handed   559088358 working-precision words and  3790 shell-pairs
 PRISM was handed   559088358 working-precision words and  3790 shell-pairs
 PRISM was handed   559088358 working-precision words and  3790 shell-pairs
 PRISM was handed   559088358 working-precision words and  3790 shell-pairs
 IPart= 11 NShTot=       13500 NBatch=         300 AvBLen=        45.0
 PrsmSu-ThDecC:  IPartSL=   11    0 NPrtUSL=   12    1 IThBeg=    0 IThEnd=   11 CPU=   -1 GPU=   -1 NThAct=   12.
 IPart=  7 NShTot=       14085 NBatch=         313 AvBLen=        45.0
 PrsmSu-ThDecC:  IPartSL=    7    0 NPrtUSL=   12    1 IThBeg=    0 IThEnd=   11 CPU=   -1 GPU=   -1 NThAct=   11.
 IPart=  0 NShTot=       14895 NBatch=         331 AvBLen=        45.0
 PrsmSu-ThDecC:  IPartSL=    0    0 NPrtUSL=   12    1 IThBeg=    0 IThEnd=   11 CPU=   -1 GPU=   -1 NThAct=   10.
 IPart=  3 NShTot=       14535 NBatch=         323 AvBLen=        45.0
 PrsmSu-ThDecC:  IPartSL=    3    0 NPrtUSL=   12    1 IThBeg=    0 IThEnd=   11 CPU=   -1 GPU=   -1 NThAct=    9.
 IPart=  9 NShTot=       13815 NBatch=         307 AvBLen=        45.0
 PrsmSu-ThDecC:  IPartSL=    9    0 NPrtUSL=   12    1 IThBeg=    0 IThEnd=   11 CPU=   -1 GPU=   -1 NThAct=    8.
 IPart= 10 NShTot=       13590 NBatch=         302 AvBLen=        45.0
 PrsmSu-ThDecC:  IPartSL=   10    0 NPrtUSL=   12    1 IThBeg=    0 IThEnd=   11 CPU=   -1 GPU=   -1 NThAct=    7.
 IPart=  2 NShTot=       14535 NBatch=         323 AvBLen=        45.0
 PrsmSu-ThDecC:  IPartSL=    2    0 NPrtUSL=   12    1 IThBeg=    0 IThEnd=   11 CPU=   -1 GPU=   -1 NThAct=    6.
 IPart=  1 NShTot=       14715 NBatch=         327 AvBLen=        45.0
 PrsmSu-ThDecC:  IPartSL=    1    0 NPrtUSL=   12    1 IThBeg=    0 IThEnd=   11 CPU=   -1 GPU=   -1 NThAct=    5.
 IPart=  4 NShTot=       14445 NBatch=         321 AvBLen=        45.0
 PrsmSu-ThDecC:  IPartSL=    4    0 NPrtUSL=   12    1 IThBeg=    0 IThEnd=   11 CPU=   -1 GPU=   -1 NThAct=    4.
 IPart=  8 NShTot=       13860 NBatch=         308 AvBLen=        45.0
 PrsmSu-ThDecC:  IPartSL=    8    0 NPrtUSL=   12    1 IThBeg=    0 IThEnd=   11 CPU=   -1 GPU=   -1 NThAct=    3.
 IPart=  6 NShTot=       14220 NBatch=         316 AvBLen=        45.0
 PrsmSu-ThDecC:  IPartSL=    6    0 NPrtUSL=   12    1 IThBeg=    0 IThEnd=   11 CPU=   -1 GPU=   -1 NThAct=    2.
 IPart=  5 NShTot=       14355 NBatch=         319 AvBLen=        45.0
 PrsmSu-ThDecC:  IPartSL=    5    0 NPrtUSL=   12    1 IThBeg=    0 IThEnd=   11 CPU=   -1 GPU=   -1 NThAct=    1.
 PrSmSu:  NxtVal=           1705.
 --------------------------------------------------------
       Center         ----      EFG at Nuclei      ----
                      3XX-RR        3YY-RR        3ZZ-RR
 --------------------------------------------------------
     1   Atom       -0.031395     -0.057658      0.089053
     2   Atom        0.069408     -0.168120      0.098712
     3   Atom        0.078239     -0.187603      0.109364
     4   Atom        0.139852     -0.268557      0.128705
     5   Atom        0.086684     -0.217949      0.131265
     6   Atom        0.101269     -0.199993      0.098724
     7   Atom        0.232532     -0.318045      0.085513
     8   Atom       -0.208430      0.417960     -0.209530
     9   Atom       -0.416434      0.491843     -0.075409
    10   Atom        0.140342      0.131804     -0.272146
    11   Atom       -0.179507      0.116629      0.062878
    12   Atom       -0.145613      0.160396     -0.014783
    13   Atom        0.147428      0.152830     -0.300258
    14   Atom       -0.179060      0.122374      0.056685
    15   Atom       -0.280677      0.197138      0.083539
    16   Atom       -0.180382      0.028575      0.151807
    17   Atom       -0.229235      0.083087      0.146148
    18   Atom        0.161976      0.120868     -0.282844
    19   Atom        0.067576      0.425900     -0.493476
    20   Atom        0.141053     -0.330728      0.189675
    21   Atom       -0.080725      0.044910      0.035814
    22   Atom        0.067392      0.152421     -0.219813
    23   Atom       -0.042011     -0.022912      0.064923
    24   Atom        0.034977      0.138484     -0.173461
    25   Atom       -0.040138      0.039274      0.000865
    26   Atom        0.150959     -0.174833      0.023874
    27   Atom        0.012034      0.161387     -0.173421
    28   Atom        0.064585     -0.080353      0.015768
    29   Atom        0.013387     -0.019822      0.006434
    30   Atom        0.014588      0.154466     -0.169054
    31   Atom       -0.278644      0.143365      0.135279
    32   Atom        0.135469     -0.159767      0.024298
    33   Atom       -0.186405      0.058744      0.127661
    34   Atom       -0.290811      1.164750     -0.873939
    35   Atom        0.590761     -0.303975     -0.286786
    36   Atom        0.189032      0.159051     -0.348083
    37   Atom        0.000923     -0.163371      0.162449
    38   Atom        0.101119      0.150605     -0.251724
    39   Atom        0.164137     -0.262654      0.098517
    40   Atom       -0.258264      0.100946      0.157318
    41   Atom        0.063779      0.138184     -0.201963
    42   Atom        0.717753     -0.774282      0.056529
    43   Atom       -0.053368      0.206522     -0.153154
    44   Atom        0.188867      0.366356     -0.555224
    45   Atom        0.571027     -0.121458     -0.449569
 --------------------------------------------------------
                        XY            XZ            YZ
 --------------------------------------------------------
     1   Atom       -0.014852     -0.105392      0.088783
     2   Atom       -0.087858      0.032572      0.076887
     3   Atom       -0.111253     -0.026004      0.129442
     4   Atom       -0.131479      0.037063      0.121688
     5   Atom       -0.110387      0.001971      0.103812
     6   Atom       -0.084983      0.043167      0.057250
     7   Atom       -0.039643      0.124332      0.112257
     8   Atom        0.206917     -0.170054     -0.415820
     9   Atom       -0.173270      0.338202     -0.529393
    10   Atom        0.015609      0.025317     -0.137411
    11   Atom        0.129891      0.165881     -0.068170
    12   Atom        0.022233     -0.221899      0.009614
    13   Atom        0.004933     -0.000124     -0.079347
    14   Atom        0.138762      0.163924     -0.074022
    15   Atom       -0.076182     -0.214301     -0.062040
    16   Atom        0.273718      0.082263     -0.095339
    17   Atom       -0.232570     -0.076866     -0.080676
    18   Atom       -0.026644     -0.036264     -0.239193
    19   Atom        0.570622     -0.344702     -0.490001
    20   Atom        0.203943     -0.041172      0.103506
    21   Atom        0.040636      0.021065     -0.087803
    22   Atom       -0.006500     -0.189685     -0.021583
    23   Atom       -0.000045      0.060971      0.039035
    24   Atom        0.043785     -0.195438      0.074437
    25   Atom        0.026462     -0.017630     -0.009579
    26   Atom        0.037059      0.025415     -0.215633
    27   Atom        0.026109     -0.220989      0.032073
    28   Atom       -0.148099      0.116479      0.186158
    29   Atom       -0.008872     -0.021892     -0.032730
    30   Atom        0.001488     -0.223848     -0.000808
    31   Atom        0.062627      0.114500     -0.023435
    32   Atom       -0.091838      0.057193      0.202559
    33   Atom       -0.101493      0.084332      0.137120
    34   Atom       -0.956002     -0.139234     -0.011795
    35   Atom        0.556239     -0.379826     -0.193369
    36   Atom        0.001606     -0.154581     -0.100005
    37   Atom        0.180680      0.043075     -0.177026
[...]
 **** Fit       0.093060
 **** Fit       0.079113
 **** Fit       0.087368
 **** Fit       0.092770
 **** Fit       0.082509
 **** Fit       0.092031
 **** Fit       0.087186
 **** Fit       0.066878
 **** Fit       0.067616
 **** Fit       0.064106
 **** Fit       0.066084
 **** Fit       0.062547
 **** Fit       0.068208
 **** Fit       0.065211
 **** Fit       0.061799
 **** Fit       0.058129
 **** Fit       0.073388
 **** Fit       0.070857
 **** Fit       0.068178
 **** Fit       0.065307
 **** Fit       0.062350
 **** Fit       0.059622
 **** Fit       0.057645
 **** Fit       0.057012
 **** Fit       0.058158
 **** Fit       0.095073
 **** Fit       0.087756
 **** Fit       0.082533
 **** Fit       0.078815
 **** Fit       0.075936
 **** Fit       0.074320
 **** Fit       0.071374
 **** Fit       0.068539
 **** Fit       0.065877
 **** Fit       0.063738
 **** Fit       0.062711
 **** Fit       0.086770
 **** Fit       0.081526
 **** Fit       0.077565
 **** Fit       0.075842
 **** Fit       0.072673
 **** Fit       0.070066
 **** Fit       0.068291
 **** Fit       0.079677
 **** Fit       0.087161
 **** Fit       0.082350
 **** Fit       0.088738
 **** Fit       0.077220
 **** Fit       0.078518
 **** Fit       0.083418
 **** Fit       0.070751
 **** Fit       0.074433
 **** Fit       0.075429
 **** Fit       0.079079
 **** Fit       0.083581
 **** Fit       0.066616
 **** Fit       0.069286
 **** Fit       0.072238
 **** Fit       0.072963
 **** Fit       0.075808
 **** Fit       0.079117
 **** Fit       0.083223
 **** Fit       0.065299
 **** Fit       0.067775
 **** Fit       0.070339
 **** Fit       0.071061
 **** Fit       0.073209
 **** Fit       0.075534
 **** Fit       0.078173
 **** Fit       0.081231
 **** Fit       0.064359
 **** Fit       0.066731
 **** Fit       0.068947
 **** Fit       0.069699
 **** Fit       0.071296
 **** Fit       0.072894
 **** Fit       0.074521
 **** Fit       0.076112
 **** Fit       0.061586
 **** Fit       0.063970
 **** Fit       0.066141
 **** Fit       0.068018
 **** Fit       0.068869
 **** Fit       0.070029
 **** Fit       0.071082
 **** Fit       0.071987
 **** Fit       0.072565
 **** Fit       0.062207
 **** Fit       0.064211
 **** Fit       0.066036
 **** Fit       0.067565
 **** Fit       0.068569
 **** Fit       0.069311
 **** Fit       0.069889
 **** Fit       0.070197
 **** Fit       0.069975
 **** Fit       0.064519
 **** Fit       0.065470
 **** Fit       0.066635
 **** Fit       0.067682
 **** Fit       0.068805
 **** Fit       0.069116
 **** Fit       0.069268
 **** Fit       0.069111
 **** Fit       0.068373
 **** Fit       0.071112
 **** Fit       0.068477
 **** Fit       0.067865
 **** Fit       0.068033
 **** Fit       0.068416
 **** Fit       0.069585
 **** Fit       0.069469
 **** Fit       0.069236
 **** Fit       0.068685
 **** Fit       0.074217
 **** Fit       0.071400
 **** Fit       0.070208
 **** Fit       0.069754
 **** Fit       0.070931
 **** Fit       0.070385
 **** Fit       0.069858
 **** Fit       0.081100
 **** Fit       0.076043
 **** Fit       0.073237
 **** Fit       0.071752
 **** Fit       0.072886
 **** Fit       0.071930
 **** Fit       0.082193
 **** Fit       0.077347
 **** Fit       0.074498
 **** Fit       0.078303
 **** Fit       0.073202
 **** Fit       0.067223
 **** Fit       0.073971
 **** Fit       0.081050
 **** Fit       0.088529
 **** Fit       0.059490
 **** Fit       0.063695
 **** Fit       0.068811
 **** Fit       0.074550
 **** Fit       0.080771
 **** Fit       0.087411
 **** Fit       0.094409
 **** Fit       0.101651
 **** Fit       0.108985
 **** Fit       0.116315
 **** Fit       0.061629
 **** Fit       0.062538
 **** Fit       0.065097
 **** Fit       0.068982
 **** Fit       0.073850
 **** Fit       0.079435
 **** Fit       0.085551
 **** Fit       0.092035
 **** Fit       0.098700
 **** Fit       0.105324
 **** Fit       0.111690
 **** Fit       0.098463
 **** Fit       0.068929
 **** Fit       0.067004
 **** Fit       0.066350
 **** Fit       0.067262
 **** Fit       0.069729
 **** Fit       0.073513
 **** Fit       0.078296
 **** Fit       0.083780
 **** Fit       0.089679
 **** Fit       0.095684
 **** Fit       0.101438
 **** Fit       0.106518
 **** Fit       0.110339
 **** Fit       0.098948
 **** Fit       0.092206
 **** Fit       0.086485
 **** Fit       0.081907
 **** Fit       0.078688
 **** Fit       0.075277
 **** Fit       0.072568
 **** Fit       0.070842
 **** Fit       0.070533
 **** Fit       0.071925
 **** Fit       0.074963
 **** Fit       0.079319
 **** Fit       0.084532
 **** Fit       0.090080
 **** Fit       0.095358
 **** Fit       0.099655
 **** Fit       0.102112
 **** Fit       0.101854
 **** Fit       0.098623
 **** Fit       0.093401
 **** Fit       0.087787
 **** Fit       0.082813
 **** Fit       0.079800
 **** Fit       0.076367
 **** Fit       0.074556
 **** Fit       0.074924
 **** Fit       0.077664
 **** Fit       0.082249
 **** Fit       0.087591
 **** Fit       0.092257
 **** Fit       0.094661
 **** Fit       0.093635
 **** Fit       0.089575
 **** Fit       0.084419
 **** Fit       0.081324
 **** Fit       0.078603
 **** Fit       0.080360
 **** Fit       0.085273
 **** Fit       0.088444
 **** Fit       0.086203
 **** Fit       0.083168
 **** Fit       0.090674
 **** Fit       0.077468
 **** Fit       0.080774
 **** Fit       0.070726
 **** Fit       0.070699
 **** Fit       0.072608
 **** Fit       0.076676
 **** Fit       0.068042
 **** Fit       0.065666
 **** Fit       0.064573
 **** Fit       0.064858
 **** Fit       0.066600
 **** Fit       0.062994
 **** Fit       0.060656
 **** Fit       0.059358
 **** Fit       0.059165
 **** Fit       0.060111
 **** Fit       0.062189
 **** Fit       0.061158
 **** Fit       0.058221
 **** Fit       0.056065
 **** Fit       0.054753
 **** Fit       0.054335
 **** Fit       0.054834
 **** Fit       0.056227
 **** Fit       0.058411
 **** Fit       0.058686
 **** Fit       0.055637
 **** Fit       0.053213
 **** Fit       0.051473
 **** Fit       0.050470
 **** Fit       0.050246
 **** Fit       0.050817
 **** Fit       0.052151
 **** Fit       0.054132
 **** Fit       0.058222
 **** Fit       0.054845
 **** Fit       0.051974
 **** Fit       0.049675
 **** Fit       0.048010
 **** Fit       0.047034
 **** Fit       0.046793
 **** Fit       0.047315
 **** Fit       0.048589
 **** Fit       0.050534
 **** Fit       0.052932
 **** Fit       0.061685
 **** Fit       0.057899
 **** Fit       0.054421
 **** Fit       0.051332
 **** Fit       0.048704
 **** Fit       0.046599
 **** Fit       0.045076
 **** Fit       0.044192
 **** Fit       0.043997
 **** Fit       0.044526
 **** Fit       0.045794
 **** Fit       0.047763
 **** Fit       0.050312
 **** Fit       0.064722
 **** Fit       0.060828
 **** Fit       0.057104
 **** Fit       0.053629
 **** Fit       0.050479
 **** Fit       0.047722
 **** Fit       0.045421
 **** Fit       0.043638
 **** Fit       0.042430
 **** Fit       0.041855
 **** Fit       0.041964
 **** Fit       0.042801
 **** Fit       0.044386
 **** Fit       0.046707
 **** Fit       0.049689
 **** Fit       0.072364
 **** Fit       0.068047
 **** Fit       0.063924
 **** Fit       0.059978
 **** Fit       0.056233
 **** Fit       0.052739
 **** Fit       0.049555
 **** Fit       0.046742
 **** Fit       0.044362
 **** Fit       0.042473
 **** Fit       0.041137
 **** Fit       0.040412
 **** Fit       0.040359
 **** Fit       0.041033
 **** Fit       0.042479
 **** Fit       0.044726
 **** Fit       0.047773
 **** Fit       0.051581
 **** Fit       0.068522
 **** Fit       0.064085
 **** Fit       0.059954
 **** Fit       0.056103
 **** Fit       0.052542
 **** Fit       0.049303
 **** Fit       0.046433
 **** Fit       0.043981
 **** Fit       0.042002
 **** Fit       0.040553
 **** Fit       0.039691
 **** Fit       0.039477
 **** Fit       0.039972
 **** Fit       0.041234
 **** Fit       0.043311
 **** Fit       0.046242
 **** Fit       0.050054
 **** Fit       0.054771
 **** Fit       0.065155
 **** Fit       0.060520
 **** Fit       0.056300
 **** Fit       0.052472
 **** Fit       0.049048
 **** Fit       0.046060
 **** Fit       0.043554
 **** Fit       0.041581
 **** Fit       0.040201
 **** Fit       0.039479
 **** Fit       0.039480
 **** Fit       0.040276
 **** Fit       0.041934
 **** Fit       0.044519
 **** Fit       0.048091
 **** Fit       0.052712
 **** Fit       0.058474
 **** Fit       0.065554
 **** Fit       0.062402
 **** Fit       0.057579
 **** Fit       0.053290
 **** Fit       0.049533
 **** Fit       0.046332
 **** Fit       0.043730
 **** Fit       0.041785
 **** Fit       0.040563
 **** Fit       0.040140
 **** Fit       0.040596
 **** Fit       0.042015
 **** Fit       0.044481
 **** Fit       0.048077
 **** Fit       0.052891
 **** Fit       0.059034
 **** Fit       0.066687
 **** Fit       0.055570
 **** Fit       0.051351
 **** Fit       0.047830
 **** Fit       0.045055
 **** Fit       0.043089
 **** Fit       0.042011
 **** Fit       0.041909
 **** Fit       0.042878
 **** Fit       0.045017
 **** Fit       0.048422
 **** Fit       0.053192
 **** Fit       0.059436
 **** Fit       0.054242
 **** Fit       0.050223
 **** Fit       0.047200
 **** Fit       0.045270
 **** Fit       0.044544
 **** Fit       0.045143
 **** Fit       0.047187
 **** Fit       0.050796
 **** Fit       0.056071
 **** Fit       0.053594
 **** Fit       0.050207
 **** Fit       0.048521
 **** Fit       0.048743
 **** Fit       0.051059
 **** Fit       0.055609
 **** Fit       0.054517
 **** Fit       0.053431
 **** Fit       0.055752
 **** Fit       0.089511
 **** Fit       0.088407
 **** Fit       0.086176
 **** Fit       0.086618
 **** Fit       0.090395
 **** Fit       0.093740
 **** Fit       0.091937
 **** Fit       0.087261
 **** Fit       0.084992
 **** Fit       0.083364
 **** Fit       0.082645
 **** Fit       0.083310
 **** Fit       0.085954
 **** Fit       0.090782
 **** Fit       0.093813
 **** Fit       0.090139
 **** Fit       0.086169
 **** Fit       0.084138
 **** Fit       0.082351
 **** Fit       0.080856
 **** Fit       0.079762
 **** Fit       0.079250
 **** Fit       0.079612
 **** Fit       0.081266
 **** Fit       0.084711
 **** Fit       0.090276
 **** Fit       0.091268
 **** Fit       0.088477
 **** Fit       0.085174
 **** Fit       0.083254
 **** Fit       0.081449
 **** Fit       0.079777
 **** Fit       0.078269
 **** Fit       0.076982
 **** Fit       0.076008
 **** Fit       0.075496
 **** Fit       0.075690
 **** Fit       0.076959
 **** Fit       0.092303
 **** Fit       0.089496
 **** Fit       0.087223
 **** Fit       0.084279
 **** Fit       0.082359
 **** Fit       0.080505
 **** Fit       0.078724
 **** Fit       0.077026
 **** Fit       0.075427
 **** Fit       0.073955
 **** Fit       0.072662
 **** Fit       0.071637
 **** Fit       0.071035
 **** Fit       0.090649
 **** Fit       0.088344
 **** Fit       0.086265
 **** Fit       0.083468
 **** Fit       0.081511
 **** Fit       0.079606
 **** Fit       0.077751
 **** Fit       0.075944
 **** Fit       0.074181
 **** Fit       0.072463
 **** Fit       0.070798
 **** Fit       0.069205
 **** Fit       0.067729
 **** Fit       0.092118
 **** Fit       0.089703
 **** Fit       0.087543
 **** Fit       0.085477
 **** Fit       0.082709
 **** Fit       0.080551
 **** Fit       0.078462
 **** Fit       0.076427
 **** Fit       0.074431
 **** Fit       0.072456
 **** Fit       0.070488
 **** Fit       0.068515
 **** Fit       0.066530
 **** Fit       0.064535
 **** Fit       0.089751
 **** Fit       0.087288
 **** Fit       0.084950
 **** Fit       0.081962
 **** Fit       0.079568
 **** Fit       0.077279
 **** Fit       0.075059
 **** Fit       0.072879
 **** Fit       0.070709
 **** Fit       0.068522
 **** Fit       0.066290
 **** Fit       0.063986
 **** Fit       0.087232
 **** Fit       0.084501
 **** Fit       0.081178
 **** Fit       0.078446
 **** Fit       0.075873
 **** Fit       0.073398
 **** Fit       0.070970
 **** Fit       0.068544
 **** Fit       0.066078
 **** Fit       0.063530
 **** Fit       0.084151
 **** Fit       0.080287
 **** Fit       0.077019
 **** Fit       0.073995
 **** Fit       0.071107
 **** Fit       0.068270
 **** Fit       0.065416
 **** Fit       0.062479
 **** Fit       0.083954
 **** Fit       0.079185
 **** Fit       0.075222
 **** Fit       0.071610
 **** Fit       0.068172
 **** Fit       0.064778
 **** Fit       0.100765
 **** Fit       0.099540
 **** Fit       0.097933
 **** Fit       0.098674
 **** Fit       0.102856
 **** Fit       0.101873
 **** Fit       0.095878
 **** Fit       0.094584
 **** Fit       0.095860
 **** Fit       0.099926
 **** Fit       0.101717
 **** Fit       0.094316
 **** Fit       0.091748
 **** Fit       0.091030
 **** Fit       0.092542
 **** Fit       0.096245
 **** Fit       0.101862
 **** Fit       0.092294
 **** Fit       0.088789
 **** Fit       0.087148
 **** Fit       0.087546
 **** Fit       0.089904
 **** Fit       0.094093
 **** Fit       0.100004
 **** Fit       0.090879
 **** Fit       0.086355
 **** Fit       0.083661
 **** Fit       0.082828
 **** Fit       0.083689
 **** Fit       0.086071
 **** Fit       0.089857
 **** Fit       0.095000
 **** Fit       0.087012
 **** Fit       0.081960
 **** Fit       0.079178
 **** Fit       0.078359
 **** Fit       0.079152
 **** Fit       0.081308
 **** Fit       0.084685
 **** Fit       0.089226
 **** Fit       0.094944
 **** Fit       0.076553
 **** Fit       0.074120
 **** Fit       0.073639
 **** Fit       0.074593
 **** Fit       0.076690
 **** Fit       0.079788
 **** Fit       0.083832
 **** Fit       0.088819
 **** Fit       0.094793
 **** Fit       0.068317
 **** Fit       0.068937
 **** Fit       0.070624
 **** Fit       0.073156
 **** Fit       0.076454
 **** Fit       0.080501
 **** Fit       0.085310
 **** Fit       0.090916
 **** Fit       0.062605
 **** Fit       0.064552
 **** Fit       0.067037
 **** Fit       0.070006
 **** Fit       0.073483
 **** Fit       0.077502
 **** Fit       0.082097
 **** Fit       0.087296
 **** Fit       0.058377
 **** Fit       0.061715
 **** Fit       0.065049
 **** Fit       0.068555
 **** Fit       0.072363
 **** Fit       0.076558
 **** Fit       0.081188
 **** Fit       0.086276
 **** Fit       0.058557
 **** Fit       0.062679
 **** Fit       0.066645
 **** Fit       0.070721
 **** Fit       0.075053
 **** Fit       0.079716
 **** Fit       0.084731
 **** Fit       0.090095
 **** Fit       0.056403
 **** Fit       0.061182
 **** Fit       0.065502
 **** Fit       0.069753
 **** Fit       0.074140
 **** Fit       0.078760
 **** Fit       0.083639
 **** Fit       0.088763
 **** Fit       0.055593
 **** Fit       0.060742
 **** Fit       0.065235
 **** Fit       0.069536
 **** Fit       0.073883
 **** Fit       0.078390
 **** Fit       0.083087
 **** Fit       0.087959
 **** Fit       0.059601
 **** Fit       0.064431
 **** Fit       0.068869
 **** Fit       0.073249
 **** Fit       0.077736
 **** Fit       0.082385
 **** Fit       0.087197
 **** Fit       0.092148
 **** Fit       0.061332
 **** Fit       0.066148
 **** Fit       0.070602
 **** Fit       0.075025
 **** Fit       0.079575
 **** Fit       0.084306
 **** Fit       0.089218
 **** Fit       0.094305
 **** Fit       0.064567
 **** Fit       0.068992
 **** Fit       0.073244
 **** Fit       0.077574
 **** Fit       0.082101
 **** Fit       0.086861
 **** Fit       0.091858
 **** Fit       0.097107
 **** Fit       0.066674
 **** Fit       0.070383
 **** Fit       0.074194
 **** Fit       0.078224
 **** Fit       0.082562
 **** Fit       0.087239
 **** Fit       0.092251
 **** Fit       0.097604
 **** Fit       0.103345
 **** Fit       0.074434
 **** Fit       0.076875
 **** Fit       0.080086
 **** Fit       0.083911
 **** Fit       0.088284
 **** Fit       0.093149
 **** Fit       0.098465
 **** Fit       0.104217
 **** Fit       0.110389
 **** Fit       0.083069
 **** Fit       0.085581
 **** Fit       0.089346
 **** Fit       0.094062
 **** Fit       0.099537
 **** Fit       0.105624
 **** Fit       0.112163
 **** Fit       0.118903
 **** Fit       0.125629
 **** Fit       0.091041
 **** Fit       0.093976
 **** Fit       0.098539
 **** Fit       0.104242
 **** Fit       0.110710
 **** Fit       0.117613
 **** Fit       0.124855
 **** Fit       0.101085
 **** Fit       0.106671
 **** Fit       0.113801
 **** Fit       0.121660
 **** Fit       0.110397
 **** Fit       0.109642
 **** Fit       0.115770
 **** Fit       0.105094
 **** Fit       0.104624
 **** Fit       0.104728
 **** Fit       0.106442
 **** Fit       0.112314
 **** Fit       0.108514
 **** Fit       0.101743
 **** Fit       0.108221
 **** Fit       0.115502
 **** Fit       0.106118
 **** Fit       0.101782
 **** Fit       0.103864
 **** Fit       0.111498
 **** Fit       0.101320
 **** Fit       0.108856
 **** Fit       0.101040
 **** Fit       0.109503
 **** Fit       0.101058
 **** Fit       0.109956
 **** Fit       0.096546
 **** Fit       0.104362
 **** Fit       0.097751
 **** Fit       0.106130
 **** Fit       0.092318
 **** Fit       0.099287
 **** Fit       0.107698
 **** Fit       0.096678
 **** Fit       0.104067
 **** Fit       0.091398
 **** Fit       0.097463
 **** Fit       0.104413
 **** Fit       0.093106
 **** Fit       0.098775
 **** Fit       0.105201
 **** Fit       0.094528
 **** Fit       0.099933
 **** Fit       0.106119
 **** Fit       0.098940
 **** Fit       0.104651
 **** Fit       0.111390
 **** Fit       0.104374
 **** Fit       0.110675
 **** Fit       0.107625
 **** Fit       0.114114
 **** Fit       0.114617
 **** Fit       0.121934
 **** Fit       0.116171
 **** Fit       0.122821
 **** Fit       0.128901
 **** Fit       0.133621
 -----------------------------------------------------------------
 Leave Link  602 at Sat May  8 21:48:15 2021, MaxMem=  6710886400 cpu:               7.4 elap:               0.6

 Test job not archived.
 1\1\GINC-TAMARACK\SP\RB3LYP\6-31G\C15H23N4O3(1+)\AAOJHA\08-May-2021\0\
 \# B3LYP 6-31G Integral=(Grid=UltraFine) Pop(MK,ReadRadii) IOp(6/33=2,
 6/42=6)\\Gaussian Input File\\1,1\C,0,25.897,35.473,23.918\C,0,25.552,
 36.803,23.714\C,0,25.205,37.274,22.371\C,0,25.008,36.365,21.336\C,0,25
 .342,35.033,21.579\C,0,25.814,34.59,22.831\C,0,26.396,34.832,25.173\N,
 0,26.56,35.606,26.275\N,0,26.901,33.514,25.213\H,0,25.622,37.545,24.50
 4\H,0,24.881,38.306,22.272\H,0,24.645,36.652,20.354\H,0,25.356,34.425,
 20.679\H,0,26.099,33.544,22.897\H,0,27.166,35.296,27.024\H,0,26.54,36.
 555,25.925\H,0,27.776,33.309,25.679\H,0,26.647,32.877,24.468\N,0,30.11
 2,28.08,27.542\H,0,29.523,27.423,28.032\C,0,29.462,29.307,27.051\H,0,2
 9.271,29.095,25.999\C,0,28.022,29.456,27.625\H,0,28.034,29.412,28.715\
 C,0,27.466,30.845,27.115\H,0,28.051,31.717,27.406\H,0,27.311,30.857,26
 .036\H,0,26.481,31.039,27.54\C,0,27.082,28.377,27.181\H,0,26.854,28.32
 6,26.117\H,0,27.591,27.462,27.483\H,0,26.135,28.306,27.716\C,0,30.285,
 30.577,27.286\O,0,30.477,30.979,28.434\N,0,30.74,31.21,26.181\H,0,30.5
 98,30.804,25.267\C,0,31.581,32.434,26.266\H,0,31.689,32.768,27.298\C,0
 ,32.887,32.014,25.673\H,0,33.227,31.104,26.168\H,0,32.62,31.813,24.636
 \O,0,33.847,33.012,25.757\H,0,34.198,33.004,26.651\C,0,30.913,33.628,2
 5.648\O,0,29.672,33.766,25.708\\Version=ES64L-G16RevB.01\State=1-A\HF=
 -1029.3622323\RMSD=2.848e-09\Dipole=-2.9999353,2.4947641,-1.8949382\Qu
 adrupole=-6.1849306,12.6712834,-6.4863528,-17.7906022,16.772048,-9.788
 0388\PG=C01 [X(C15H23N4O3)]\\@


 NO HUMAN INVESTIGATION CAN BECOME REAL SCIENCE
 WITHOUT GOING THROUGH MATHEMATICAL PEOPLE.
 -- LEONARDO DA VINCI, IN "PENSIERI" CA. 1492
 Job cpu time:       0 days  0 hours 19 minutes 54.2 seconds.
 Elapsed time:       0 days  0 hours  1 minutes 40.0 seconds.
 File lengths (MBytes):  RWF=     50 Int=      0 D2E=      0 Chk=      5 Scr=      2
 Normal termination of Gaussian 16 at Sat May  8 21:48:15 2021.
