guest_init_II gaussian input file                                       
Freq      RB3LYP                                                      6-31G               
Number of atoms                            I               18
Info1-9                                    I   N=           9
          27          27        1002           0           0         101
           6          18        -502
Full Title                                 C   N=           3
guest_init_II gaussian input file   
Route                                      C   N=           8
# B3LYP 6-31G OPT FREQ Integral=(Grid=UltraFine) Pop(MK,Read
Radii) IOp(6/33=2,6/42=6)           
Charge                                     I                1
Multiplicity                               I                1
Number of electrons                        I               64
Number of alpha electrons                  I               32
Number of beta electrons                   I               32
Number of basis functions                  I               99
Number of independent functions            I               99
Number of point charges in /Mol/           I                0
Number of translation vectors              I                0
Atomic numbers                             I   N=          18
           6           6           6           6           6           6
           6           7           7           1           1           1
           1           1           1           1           1           1
Nuclear charges                            R   N=          18
  6.00000000E+00  6.00000000E+00  6.00000000E+00  6.00000000E+00  6.00000000E+00
  6.00000000E+00  6.00000000E+00  7.00000000E+00  7.00000000E+00  1.00000000E+00
  1.00000000E+00  1.00000000E+00  1.00000000E+00  1.00000000E+00  1.00000000E+00
  1.00000000E+00  1.00000000E+00  1.00000000E+00
Current cartesian coordinates              R   N=          54
  3.40632473E-01  8.75843796E-05 -7.84600943E-05 -9.94786542E-01 -2.26182306E+00
 -4.64232192E-01 -3.63034826E+00 -2.24950656E+00 -4.67615289E-01 -4.94853453E+00
 -3.03501793E-05  4.69920590E-05 -3.63041299E+00  2.24947721E+00  4.67663267E-01
 -9.94862876E-01  2.26193378E+00  4.63983132E-01  3.11352369E+00 -1.32415587E-07
 -1.31605687E-05  4.37887515E+00 -2.00972627E+00  8.61476235E-01  4.37913830E+00
  2.00963529E+00 -8.61327940E-01  9.40898954E-03 -3.99297258E+00 -9.14244969E-01
 -4.65455730E+00 -3.98022491E+00 -8.54527566E-01 -6.99736252E+00 -5.86184427E-05
  1.71418965E-04 -4.65464333E+00  3.98015024E+00  8.54709483E-01  9.20840496E-03
  3.99317036E+00  9.13914937E-01  6.27723363E+00 -2.18222422E+00  7.17444579E-01
  3.44770781E+00 -3.41967157E+00  1.74834769E+00  6.27750330E+00  2.18192207E+00
 -7.17222452E-01  3.44814103E+00  3.41971530E+00 -1.74815692E+00
Number of symbols in /Mol/                 I                0
Force Field                                I                0
Atom Types                                 C   N=          18
                                                            
                                                            
                                                            
                                    
Int Atom Types                             I   N=          18
           0           0           0           0           0           0
           0           0           0           0           0           0
           0           0           0           0           0           0
MM charges                                 R   N=          18
  0.00000000E+00  0.00000000E+00  0.00000000E+00  0.00000000E+00  0.00000000E+00
  0.00000000E+00  0.00000000E+00  0.00000000E+00  0.00000000E+00  0.00000000E+00
  0.00000000E+00  0.00000000E+00  0.00000000E+00  0.00000000E+00  0.00000000E+00
  0.00000000E+00  0.00000000E+00  0.00000000E+00
Integer atomic weights                     I   N=          18
          12          12          12          12          12          12
          12          14          14           1           1           1
           1           1           1           1           1           1
Real atomic weights                        R   N=          18
  1.20000000E+01  1.20000000E+01  1.20000000E+01  1.20000000E+01  1.20000000E+01
  1.20000000E+01  1.20000000E+01  1.40030740E+01  1.40030740E+01  1.00782504E+00
  1.00782504E+00  1.00782504E+00  1.00782504E+00  1.00782504E+00  1.00782504E+00
  1.00782504E+00  1.00782504E+00  1.00782504E+00
Atom fragment info                         I   N=          18
           0           0           0           0           0           0
           0           0           0           0           0           0
           0           0           0           0           0           0
Atom residue num                           I   N=          18
           0           0           0           0           0           0
           0           0           0           0           0           0
           0           0           0           0           0           0
Nuclear spins                              I   N=          18
           0           0           0           0           0           0
           0           2           2           1           1           1
           1           1           1           1           1           1
Nuclear ZEff                               R   N=          18
 -3.60000000E+00 -3.60000000E+00 -3.60000000E+00 -3.60000000E+00 -3.60000000E+00
 -3.60000000E+00 -3.60000000E+00 -4.55000000E+00 -4.55000000E+00 -1.00000000E+00
 -1.00000000E+00 -1.00000000E+00 -1.00000000E+00 -1.00000000E+00 -1.00000000E+00
 -1.00000000E+00 -1.00000000E+00 -1.00000000E+00
Nuclear ZNuc                               R   N=          18
  6.00000000E+00  6.00000000E+00  6.00000000E+00  6.00000000E+00  6.00000000E+00
  6.00000000E+00  6.00000000E+00  7.00000000E+00  7.00000000E+00  1.00000000E+00
  1.00000000E+00  1.00000000E+00  1.00000000E+00  1.00000000E+00  1.00000000E+00
  1.00000000E+00  1.00000000E+00  1.00000000E+00
Nuclear QMom                               R   N=          18
  0.00000000E+00  0.00000000E+00  0.00000000E+00  0.00000000E+00  0.00000000E+00
  0.00000000E+00  0.00000000E+00  2.04400000E+00  2.04400000E+00  0.00000000E+00
  0.00000000E+00  0.00000000E+00  0.00000000E+00  0.00000000E+00  0.00000000E+00
  0.00000000E+00  0.00000000E+00  0.00000000E+00
Nuclear GFac                               R   N=          18
  0.00000000E+00  0.00000000E+00  0.00000000E+00  0.00000000E+00  0.00000000E+00
  0.00000000E+00  0.00000000E+00  4.03761000E-01  4.03761000E-01  2.79284600E+00
  2.79284600E+00  2.79284600E+00  2.79284600E+00  2.79284600E+00  2.79284600E+00
  2.79284600E+00  2.79284600E+00  2.79284600E+00
MicOpt                                     I   N=          18
          -1          -1          -1          -1          -1          -1
          -1          -1          -1          -1          -1          -1
          -1          -1          -1          -1          -1          -1
Number of residues                         I                0
Number of secondary structures             I                0
Redundant internal dimensions              I   N=           4
          81          18          27          36
Redundant internal coordinate indices      I   N=         324
           1           2           0           0           1           6
           0           0           1           7           0           0
           2           3           0           0           2          10
           0           0           3           4           0           0
           3          11           0           0           4           5
           0           0           4          12           0           0
           5           6           0           0           5          13
           0           0           6          14           0           0
           7           8           0           0           7           9
           0           0           8          15           0           0
           8          16           0           0           9          17
           0           0           9          18           0           0
           2           1           6           0           2           1
           7           0           6           1           7           0
           1           2           3           0           1           2
          10           0           3           2          10           0
           2           3           4           0           2           3
          11           0           4           3          11           0
           3           4           5           0           3           4
          12           0           5           4          12           0
           4           5           6           0           4           5
          13           0           6           5          13           0
           1           6           5           0           1           6
          14           0           5           6          14           0
           1           7           8           0           1           7
           9           0           8           7           9           0
           7           8          15           0           7           8
          16           0          15           8          16           0
           7           9          17           0           7           9
          18           0          17           9          18           0
           6           1           2           3           6           1
           2          10           7           1           2           3
           7           1           2          10           2           1
           6           5           2           1           6          14
           7           1           6           5           7           1
           6          14           2           1           7           8
           2           1           7           9           6           1
           7           8           6           1           7           9
           1           2           3           4           1           2
           3          11          10           2           3           4
          10           2           3          11           2           3
           4           5           2           3           4          12
          11           3           4           5          11           3
           4          12           3           4           5           6
           3           4           5          13          12           4
           5           6          12           4           5          13
           4           5           6           1           4           5
           6          14          13           5           6           1
          13           5           6          14           1           7
           8          15           1           7           8          16
           9           7           8          15           9           7
           8          16           1           7           9          17
           1           7           9          18           8           7
           9          17           8           7           9          18
Redundant internal coordinates             R   N=          81
  2.66739993E+00  2.66736747E+00  2.77289122E+00  2.63559267E+00  2.05129199E+00
  2.64886131E+00  2.04794806E+00  2.64884760E+00  2.04882800E+00  2.63558212E+00
  2.04794574E+00  2.05128688E+00  2.52631697E+00  2.52631709E+00  1.91161334E+00
  1.90828702E+00  1.91160633E+00  1.90828384E+00  2.09286635E+00  2.09511317E+00
  2.09520578E+00  2.09081830E+00  2.10450183E+00  2.08656010E+00  2.09598780E+00
  2.09024559E+00  2.09688533E+00  2.09986019E+00  2.09167401E+00  2.09165111E+00
  2.09599161E+00  2.09689653E+00  2.09023099E+00  2.09082873E+00  2.10453078E+00
  2.08651511E+00  2.09543609E+00  2.09547971E+00  2.09226951E+00  2.14538155E+00
  2.09653086E+00  2.04083546E+00  2.14539113E+00  2.09651299E+00  2.04084343E+00
  2.49799262E-03  3.08896520E+00 -3.13909522E+00 -5.26280111E-02  2.70425508E-03
  3.08905203E+00 -3.13888784E+00 -5.25400667E-02 -6.07338984E-01  2.53430010E+00
  2.53425311E+00 -6.07293115E-01 -5.12109475E-03  3.12408938E+00 -3.09215845E+00
  3.70520198E-02  2.57435676E-03 -3.13896900E+00 -3.12658865E+00  1.50533062E-02
  2.66932081E-03 -3.12653183E+00 -3.13897263E+00  1.50115190E-02 -5.27165356E-03
 -3.09219315E+00  3.12397701E+00  3.70555143E-02  3.01640270E+00 -1.57965893E-01
 -1.25236294E-01  2.98358042E+00  3.01643595E+00 -1.57944376E-01 -1.25110356E-01
  2.98369462E+00
ZRed-IntVec                                I   N=          81
           0           0           0           0           0           0
           0           0           0           0           0           0
           0           0           0           0           0           0
           0           0           0           0           0           0
           0           0           0           0           0           0
           0           0           0           0           0           0
           0           0           0           0           0           0
           0           0           0           0           0           0
           0           0           0           0           0           0
           0           0           0           0           0           0
           0           0           0           0           0           0
           0           0           0           0           0           0
           0           0           0           0           0           0
           0           0           0
ZRed-FPVec                                 R   N=          81
  0.00000000E+00  0.00000000E+00  0.00000000E+00  0.00000000E+00  0.00000000E+00
  0.00000000E+00  0.00000000E+00  0.00000000E+00  0.00000000E+00  0.00000000E+00
  0.00000000E+00  0.00000000E+00  0.00000000E+00  0.00000000E+00  0.00000000E+00
  0.00000000E+00  0.00000000E+00  0.00000000E+00  0.00000000E+00  0.00000000E+00
  0.00000000E+00  0.00000000E+00  0.00000000E+00  0.00000000E+00  0.00000000E+00
  0.00000000E+00  0.00000000E+00  0.00000000E+00  0.00000000E+00  0.00000000E+00
  0.00000000E+00  0.00000000E+00  0.00000000E+00  0.00000000E+00  0.00000000E+00
  0.00000000E+00  0.00000000E+00  0.00000000E+00  0.00000000E+00  0.00000000E+00
  0.00000000E+00  0.00000000E+00  0.00000000E+00  0.00000000E+00  0.00000000E+00
  0.00000000E+00  0.00000000E+00  0.00000000E+00  0.00000000E+00  0.00000000E+00
  0.00000000E+00  0.00000000E+00  0.00000000E+00  0.00000000E+00  0.00000000E+00
  0.00000000E+00  0.00000000E+00  0.00000000E+00  0.00000000E+00  0.00000000E+00
  0.00000000E+00  0.00000000E+00  0.00000000E+00  0.00000000E+00  0.00000000E+00
  0.00000000E+00  0.00000000E+00  0.00000000E+00  0.00000000E+00  0.00000000E+00
  0.00000000E+00  0.00000000E+00  0.00000000E+00  0.00000000E+00  0.00000000E+00
  0.00000000E+00  0.00000000E+00  0.00000000E+00  0.00000000E+00  0.00000000E+00
  0.00000000E+00
ZRed-Constraint1                           R   N=          81
  2.66739993E+00  2.66736747E+00  2.77289122E+00  2.63559267E+00  2.05129199E+00
  2.64886131E+00  2.04794806E+00  2.64884760E+00  2.04882800E+00  2.63558212E+00
  2.04794574E+00  2.05128688E+00  2.52631697E+00  2.52631709E+00  1.91161334E+00
  1.90828702E+00  1.91160633E+00  1.90828384E+00  2.09286635E+00  2.09511317E+00
  2.09520578E+00  2.09081830E+00  2.10450183E+00  2.08656010E+00  2.09598780E+00
  2.09024559E+00  2.09688533E+00  2.09986019E+00  2.09167401E+00  2.09165111E+00
  2.09599161E+00  2.09689653E+00  2.09023099E+00  2.09082873E+00  2.10453078E+00
  2.08651511E+00  2.09543609E+00  2.09547971E+00  2.09226951E+00  2.14538155E+00
  2.09653086E+00  2.04083546E+00  2.14539113E+00  2.09651299E+00  2.04084343E+00
  2.49799262E-03  3.08896520E+00 -3.13909522E+00 -5.26280111E-02  2.70425508E-03
  3.08905203E+00 -3.13888784E+00 -5.25400667E-02 -6.07338984E-01  2.53430010E+00
  2.53425311E+00 -6.07293115E-01 -5.12109475E-03  3.12408938E+00 -3.09215845E+00
  3.70520198E-02  2.57435676E-03 -3.13896900E+00 -3.12658865E+00  1.50533062E-02
  2.66932081E-03 -3.12653183E+00 -3.13897263E+00  1.50115190E-02 -5.27165356E-03
 -3.09219315E+00  3.12397701E+00  3.70555143E-02  3.01640270E+00 -1.57965893E-01
 -1.25236294E-01  2.98358042E+00  3.01643595E+00 -1.57944376E-01 -1.25110356E-01
  2.98369462E+00
ZRed-Constraint2                           R   N=          81
  2.62497924E+00  2.65110930E+00  2.82506598E+00  2.76823851E+00  2.05238873E+00
  2.62958293E+00  2.05259491E+00  2.63535774E+00  2.05142979E+00  2.66346624E+00
  2.05264623E+00  2.05250444E+00  2.56361112E+00  2.66829663E+00  1.91258303E+00
  1.91180240E+00  1.91302082E+00  1.91349117E+00  2.06479932E+00  2.23537326E+00
  1.98266851E+00  2.09592439E+00  2.13093504E+00  2.05157273E+00  2.10064746E+00
  2.04845998E+00  2.10671813E+00  2.04926982E+00  2.15013173E+00  2.08314279E+00
  2.13553219E+00  1.97505770E+00  2.16007493E+00  2.10627364E+00  2.14544617E+00
  2.03146026E+00  2.06877659E+00  2.14526535E+00  2.05591246E+00  2.09299575E+00
  1.82530774E+00  2.15937651E+00  2.10737014E+00  2.06763743E+00  2.01319395E+00
 -7.45000453E-02 -3.10887795E+00  3.03692241E+00  2.54449842E-03 -4.28809674E-02
  3.10231829E+00  3.12462730E+00 -1.33587503E-02 -1.07611974E-02 -2.97427641E+00
  3.10184457E+00  1.38329354E-01  1.80873168E-01  3.07507762E+00 -3.06314610E+00
 -1.68941642E-01 -1.59295707E-01  3.02107891E+00 -3.04518625E+00  1.35188365E-01
  4.17537360E-02 -2.93628024E+00 -3.13707305E+00  1.68078277E-01  6.24972605E-02
 -3.08247501E+00  3.02302564E+00 -1.21946636E-01 -2.78743993E+00 -2.69781511E-01
  1.85251944E-01  2.70291036E+00  2.30610390E+00 -3.60095553E-01 -6.58646525E-01
  2.95833933E+00
SymInf integers                            I   N=          26
           1           1           1           1           1           0
           0           0           0           0           0           0
           0           0           0           0           0           0
           0           0           0           0           0           0
           0           0
RotTr to input orientation                 R   N=          12
  3.71886101E-01 -3.47389811E-01  8.60825793E-01  1.07967982E-01 -9.04855007E-01
 -4.11801325E-01  9.21978114E-01  2.46084813E-01 -2.98996024E-01  4.90463130E+01
  6.70028692E+01  4.46895432E+01
Number of contracted shells                I               45
Number of primitive shells                 I              126
Pure/Cartesian d shells                    I                1
Pure/Cartesian f shells                    I                0
Highest angular momentum                   I                1
Largest degree of contraction              I                6
Shell types                                I   N=          45
           0          -1          -1           0          -1          -1
           0          -1          -1           0          -1          -1
           0          -1          -1           0          -1          -1
           0          -1          -1           0          -1          -1
           0          -1          -1           0           0           0
           0           0           0           0           0           0
           0           0           0           0           0           0
           0           0           0
Number of primitives per shell             I   N=          45
           6           3           1           6           3           1
           6           3           1           6           3           1
           6           3           1           6           3           1
           6           3           1           6           3           1
           6           3           1           3           1           3
           1           3           1           3           1           3
           1           3           1           3           1           3
           1           3           1
Shell to atom map                          I   N=          45
           1           1           1           2           2           2
           3           3           3           4           4           4
           5           5           5           6           6           6
           7           7           7           8           8           8
           9           9           9          10          10          11
          11          12          12          13          13          14
          14          15          15          16          16          17
          17          18          18
Primitive exponents                        R   N=         126
  3.04752488E+03  4.57369518E+02  1.03948685E+02  2.92101553E+01  9.28666296E+00
  3.16392696E+00  7.86827235E+00  1.88128854E+00  5.44249258E-01  1.68714478E-01
  3.04752488E+03  4.57369518E+02  1.03948685E+02  2.92101553E+01  9.28666296E+00
  3.16392696E+00  7.86827235E+00  1.88128854E+00  5.44249258E-01  1.68714478E-01
  3.04752488E+03  4.57369518E+02  1.03948685E+02  2.92101553E+01  9.28666296E+00
  3.16392696E+00  7.86827235E+00  1.88128854E+00  5.44249258E-01  1.68714478E-01
  3.04752488E+03  4.57369518E+02  1.03948685E+02  2.92101553E+01  9.28666296E+00
  3.16392696E+00  7.86827235E+00  1.88128854E+00  5.44249258E-01  1.68714478E-01
  3.04752488E+03  4.57369518E+02  1.03948685E+02  2.92101553E+01  9.28666296E+00
  3.16392696E+00  7.86827235E+00  1.88128854E+00  5.44249258E-01  1.68714478E-01
  3.04752488E+03  4.57369518E+02  1.03948685E+02  2.92101553E+01  9.28666296E+00
  3.16392696E+00  7.86827235E+00  1.88128854E+00  5.44249258E-01  1.68714478E-01
  3.04752488E+03  4.57369518E+02  1.03948685E+02  2.92101553E+01  9.28666296E+00
  3.16392696E+00  7.86827235E+00  1.88128854E+00  5.44249258E-01  1.68714478E-01
  4.17351146E+03  6.27457911E+02  1.42902093E+02  4.02343293E+01  1.28202129E+01
  4.39043701E+00  1.16263619E+01  2.71627981E+00  7.72218397E-01  2.12031498E-01
  4.17351146E+03  6.27457911E+02  1.42902093E+02  4.02343293E+01  1.28202129E+01
  4.39043701E+00  1.16263619E+01  2.71627981E+00  7.72218397E-01  2.12031498E-01
  1.87311370E+01  2.82539436E+00  6.40121692E-01  1.61277759E-01  1.87311370E+01
  2.82539436E+00  6.40121692E-01  1.61277759E-01  1.87311370E+01  2.82539436E+00
  6.40121692E-01  1.61277759E-01  1.87311370E+01  2.82539436E+00  6.40121692E-01
  1.61277759E-01  1.87311370E+01  2.82539436E+00  6.40121692E-01  1.61277759E-01
  1.87311370E+01  2.82539436E+00  6.40121692E-01  1.61277759E-01  1.87311370E+01
  2.82539436E+00  6.40121692E-01  1.61277759E-01  1.87311370E+01  2.82539436E+00
  6.40121692E-01  1.61277759E-01  1.87311370E+01  2.82539436E+00  6.40121692E-01
  1.61277759E-01
Contraction coefficients                   R   N=         126
  1.83473713E-03  1.40373228E-02  6.88426223E-02  2.32184443E-01  4.67941348E-01
  3.62311985E-01 -1.19332420E-01 -1.60854152E-01  1.14345644E+00  1.00000000E+00
  1.83473713E-03  1.40373228E-02  6.88426223E-02  2.32184443E-01  4.67941348E-01
  3.62311985E-01 -1.19332420E-01 -1.60854152E-01  1.14345644E+00  1.00000000E+00
  1.83473713E-03  1.40373228E-02  6.88426223E-02  2.32184443E-01  4.67941348E-01
  3.62311985E-01 -1.19332420E-01 -1.60854152E-01  1.14345644E+00  1.00000000E+00
  1.83473713E-03  1.40373228E-02  6.88426223E-02  2.32184443E-01  4.67941348E-01
  3.62311985E-01 -1.19332420E-01 -1.60854152E-01  1.14345644E+00  1.00000000E+00
  1.83473713E-03  1.40373228E-02  6.88426223E-02  2.32184443E-01  4.67941348E-01
  3.62311985E-01 -1.19332420E-01 -1.60854152E-01  1.14345644E+00  1.00000000E+00
  1.83473713E-03  1.40373228E-02  6.88426223E-02  2.32184443E-01  4.67941348E-01
  3.62311985E-01 -1.19332420E-01 -1.60854152E-01  1.14345644E+00  1.00000000E+00
  1.83473713E-03  1.40373228E-02  6.88426223E-02  2.32184443E-01  4.67941348E-01
  3.62311985E-01 -1.19332420E-01 -1.60854152E-01  1.14345644E+00  1.00000000E+00
  1.83477216E-03  1.39946270E-02  6.85865518E-02  2.32240873E-01  4.69069948E-01
  3.60455199E-01 -1.14961182E-01 -1.69117479E-01  1.14585195E+00  1.00000000E+00
  1.83477216E-03  1.39946270E-02  6.85865518E-02  2.32240873E-01  4.69069948E-01
  3.60455199E-01 -1.14961182E-01 -1.69117479E-01  1.14585195E+00  1.00000000E+00
  3.34946043E-02  2.34726953E-01  8.13757326E-01  1.00000000E+00  3.34946043E-02
  2.34726953E-01  8.13757326E-01  1.00000000E+00  3.34946043E-02  2.34726953E-01
  8.13757326E-01  1.00000000E+00  3.34946043E-02  2.34726953E-01  8.13757326E-01
  1.00000000E+00  3.34946043E-02  2.34726953E-01  8.13757326E-01  1.00000000E+00
  3.34946043E-02  2.34726953E-01  8.13757326E-01  1.00000000E+00  3.34946043E-02
  2.34726953E-01  8.13757326E-01  1.00000000E+00  3.34946043E-02  2.34726953E-01
  8.13757326E-01  1.00000000E+00  3.34946043E-02  2.34726953E-01  8.13757326E-01
  1.00000000E+00
P(S=P) Contraction coefficients            R   N=         126
  0.00000000E+00  0.00000000E+00  0.00000000E+00  0.00000000E+00  0.00000000E+00
  0.00000000E+00  6.89990666E-02  3.16423961E-01  7.44308291E-01  1.00000000E+00
  0.00000000E+00  0.00000000E+00  0.00000000E+00  0.00000000E+00  0.00000000E+00
  0.00000000E+00  6.89990666E-02  3.16423961E-01  7.44308291E-01  1.00000000E+00
  0.00000000E+00  0.00000000E+00  0.00000000E+00  0.00000000E+00  0.00000000E+00
  0.00000000E+00  6.89990666E-02  3.16423961E-01  7.44308291E-01  1.00000000E+00
  0.00000000E+00  0.00000000E+00  0.00000000E+00  0.00000000E+00  0.00000000E+00
  0.00000000E+00  6.89990666E-02  3.16423961E-01  7.44308291E-01  1.00000000E+00
  0.00000000E+00  0.00000000E+00  0.00000000E+00  0.00000000E+00  0.00000000E+00
  0.00000000E+00  6.89990666E-02  3.16423961E-01  7.44308291E-01  1.00000000E+00
  0.00000000E+00  0.00000000E+00  0.00000000E+00  0.00000000E+00  0.00000000E+00
  0.00000000E+00  6.89990666E-02  3.16423961E-01  7.44308291E-01  1.00000000E+00
  0.00000000E+00  0.00000000E+00  0.00000000E+00  0.00000000E+00  0.00000000E+00
  0.00000000E+00  6.89990666E-02  3.16423961E-01  7.44308291E-01  1.00000000E+00
  0.00000000E+00  0.00000000E+00  0.00000000E+00  0.00000000E+00  0.00000000E+00
  0.00000000E+00  6.75797439E-02  3.23907296E-01  7.40895140E-01  1.00000000E+00
  0.00000000E+00  0.00000000E+00  0.00000000E+00  0.00000000E+00  0.00000000E+00
  0.00000000E+00  6.75797439E-02  3.23907296E-01  7.40895140E-01  1.00000000E+00
  0.00000000E+00  0.00000000E+00  0.00000000E+00  0.00000000E+00  0.00000000E+00
  0.00000000E+00  0.00000000E+00  0.00000000E+00  0.00000000E+00  0.00000000E+00
  0.00000000E+00  0.00000000E+00  0.00000000E+00  0.00000000E+00  0.00000000E+00
  0.00000000E+00  0.00000000E+00  0.00000000E+00  0.00000000E+00  0.00000000E+00
  0.00000000E+00  0.00000000E+00  0.00000000E+00  0.00000000E+00  0.00000000E+00
  0.00000000E+00  0.00000000E+00  0.00000000E+00  0.00000000E+00  0.00000000E+00
  0.00000000E+00  0.00000000E+00  0.00000000E+00  0.00000000E+00  0.00000000E+00
  0.00000000E+00
Coordinates of each shell                  R   N=         135
  3.40632473E-01  8.75843796E-05 -7.84600943E-05  3.40632473E-01  8.75843796E-05
 -7.84600943E-05  3.40632473E-01  8.75843796E-05 -7.84600943E-05 -9.94786542E-01
 -2.26182306E+00 -4.64232192E-01 -9.94786542E-01 -2.26182306E+00 -4.64232192E-01
 -9.94786542E-01 -2.26182306E+00 -4.64232192E-01 -3.63034826E+00 -2.24950656E+00
 -4.67615289E-01 -3.63034826E+00 -2.24950656E+00 -4.67615289E-01 -3.63034826E+00
 -2.24950656E+00 -4.67615289E-01 -4.94853453E+00 -3.03501793E-05  4.69920590E-05
 -4.94853453E+00 -3.03501793E-05  4.69920590E-05 -4.94853453E+00 -3.03501793E-05
  4.69920590E-05 -3.63041299E+00  2.24947721E+00  4.67663267E-01 -3.63041299E+00
  2.24947721E+00  4.67663267E-01 -3.63041299E+00  2.24947721E+00  4.67663267E-01
 -9.94862876E-01  2.26193378E+00  4.63983132E-01 -9.94862876E-01  2.26193378E+00
  4.63983132E-01 -9.94862876E-01  2.26193378E+00  4.63983132E-01  3.11352369E+00
 -1.32415587E-07 -1.31605687E-05  3.11352369E+00 -1.32415587E-07 -1.31605687E-05
  3.11352369E+00 -1.32415587E-07 -1.31605687E-05  4.37887515E+00 -2.00972627E+00
  8.61476235E-01  4.37887515E+00 -2.00972627E+00  8.61476235E-01  4.37887515E+00
 -2.00972627E+00  8.61476235E-01  4.37913830E+00  2.00963529E+00 -8.61327940E-01
  4.37913830E+00  2.00963529E+00 -8.61327940E-01  4.37913830E+00  2.00963529E+00
 -8.61327940E-01  9.40898954E-03 -3.99297258E+00 -9.14244969E-01  9.40898954E-03
 -3.99297258E+00 -9.14244969E-01 -4.65455730E+00 -3.98022491E+00 -8.54527566E-01
 -4.65455730E+00 -3.98022491E+00 -8.54527566E-01 -6.99736252E+00 -5.86184427E-05
  1.71418965E-04 -6.99736252E+00 -5.86184427E-05  1.71418965E-04 -4.65464333E+00
  3.98015024E+00  8.54709483E-01 -4.65464333E+00  3.98015024E+00  8.54709483E-01
  9.20840496E-03  3.99317036E+00  9.13914937E-01  9.20840496E-03  3.99317036E+00
  9.13914937E-01  6.27723363E+00 -2.18222422E+00  7.17444579E-01  6.27723363E+00
 -2.18222422E+00  7.17444579E-01  3.44770781E+00 -3.41967157E+00  1.74834769E+00
  3.44770781E+00 -3.41967157E+00  1.74834769E+00  6.27750330E+00  2.18192207E+00
 -7.17222452E-01  6.27750330E+00  2.18192207E+00 -7.17222452E-01  3.44814103E+00
  3.41971530E+00 -1.74815692E+00  3.44814103E+00  3.41971530E+00 -1.74815692E+00
Num ILSW                                   I              100
ILSW                                       I   N=         100
           0           1           0           0           2           0
           0           0           0           0         402          -1
           5           0           0           0           2           0
           0           0           1           0           1           0
           1           0           0           0           0           0
           0           0      100000           0          -1           0
           0           0           0           0           0           0
           0           0           0           1           0           0
           0 -2000000000           1           0           0           0