
    -----------------------------------------------------------------------
          Psi4: An Open-Source Ab Initio Electronic Structure Package
                               Psi4 1.3.2 release

                         Git: Rev {HEAD} ecbda83 


    R. M. Parrish, L. A. Burns, D. G. A. Smith, A. C. Simmonett,
    A. E. DePrince III, E. G. Hohenstein, U. Bozkaya, A. Yu. Sokolov,
    R. Di Remigio, R. M. Richard, J. F. Gonthier, A. M. James,
    H. R. McAlexander, A. Kumar, M. Saitow, X. Wang, B. P. Pritchard,
    P. Verma, H. F. Schaefer III, K. Patkowski, R. A. King, E. F. Valeev,
    F. A. Evangelista, J. M. Turney, T. D. Crawford, and C. D. Sherrill,
    J. Chem. Theory Comput. 13(7) pp 3185--3197 (2017).
    (doi: 10.1021/acs.jctc.7b00174)


                         Additional Contributions by
    P. Kraus, H. Kruse, M. H. Lechner, M. C. Schieber, R. A. Shaw,
    A. Alenaizan, R. Galvelis, Z. L. Glick, S. Lehtola, and J. P. Misiewicz

    -----------------------------------------------------------------------


    Psi4 started on: Friday, 14 May 2021 10:23AM

    Process ID: 30359
    Host:       aaojha
    PSIDATADIR: /home/aaojha/anaconda3/envs/torsiondrive/share/psi4
    Memory:     500.0 MiB
    Threads:    1
    
  ==> Input File <==

--------------------------------------------------------------------------
memory 50 GB
molecule {
1 1
C           0.1565362    -0.0028714    -0.0078610
C          -0.5827644    -0.5334942    -1.1236347
C          -1.9993370    -0.5277500    -1.1094574
C          -2.7032397     0.0040032     0.0110669
C          -1.9823772     0.5324161     1.1223260
C          -0.5657286     0.5311432     1.1174901
C           1.6660923    -0.0068084    -0.0177208
N           2.3945680     0.4985438     1.0448893
N           2.3778705    -0.5144056    -1.0904683
H          -0.0669585    -0.9532476    -2.0086807
H          -2.5570069    -0.9385827    -1.9735043
H          -3.8118967     0.0066118     0.0182766
H          -2.5266310     0.9459164     1.9936302
H          -0.0363753     0.9486031     1.9955679
H           3.4461182     0.5002647     1.0483618
H           1.9080534     0.8974061     1.8840501
H           3.4292355    -0.5262426    -1.1054920
H           1.8782561    -0.9150679    -1.9210375
}
set {
basis STO-3G
}
gradient('BLYP')
--------------------------------------------------------------------------

  Memory set to  46.566 GiB by Python driver.
gradient() will perform analytic gradient computation.

*** tstart() called on aaojha
*** at Fri May 14 10:23:52 2021

   => Loading Basis Set <=

    Name: STO-3G
    Role: ORBITAL
    Keyword: BASIS
    atoms 1-7   entry C          line    61 file /home/aaojha/anaconda3/envs/torsiondrive/share/psi4/basis/sto-3g.gbs 
    atoms 8-9   entry N          line    71 file /home/aaojha/anaconda3/envs/torsiondrive/share/psi4/basis/sto-3g.gbs 
    atoms 10-18 entry H          line    19 file /home/aaojha/anaconda3/envs/torsiondrive/share/psi4/basis/sto-3g.gbs 


         ---------------------------------------------------------
                                   SCF
               by Justin Turney, Rob Parrish, Andy Simmonett
                          and Daniel G. A. Smith
                              RKS Reference
                        1 Threads,  47683 MiB Core
         ---------------------------------------------------------

  ==> Geometry <==

    Molecular point group: c1
    Full point group: C1

    Geometry (in Angstrom), charge = 1, multiplicity = 1:

       Center              X                  Y                   Z               Mass       
    ------------   -----------------  -----------------  -----------------  -----------------
         C            0.186477624515    -0.000417916617    -0.001244497990    12.000000000000
         C           -0.552822975485    -0.531040716617    -1.117018197990    12.000000000000
         C           -1.969395575485    -0.525296516617    -1.102840897990    12.000000000000
         C           -2.673298275485     0.006456683383     0.017683402010    12.000000000000
         C           -1.952435775485     0.534869583383     1.128942502010    12.000000000000
         C           -0.535787175485     0.533596683383     1.124106602010    12.000000000000
         C            1.696033724515    -0.004354916617    -0.011104297990    12.000000000000
         N            2.424509424515     0.500997283383     1.051505802010    14.003074004430
         N            2.407811924515    -0.511952116617    -1.083851797990    14.003074004430
         H           -0.037017075485    -0.950794116617    -2.002064197990     1.007825032230
         H           -2.527065475485    -0.936129216617    -1.966887797990     1.007825032230
         H           -3.781955275485     0.009065283383     0.024893102010     1.007825032230
         H           -2.496689575485     0.948369883383     2.000246702010     1.007825032230
         H           -0.006433875485     0.951056583383     2.002184402010     1.007825032230
         H            3.476059624515     0.502718183383     1.054978302010     1.007825032230
         H            1.937994824515     0.899859583383     1.890666602010     1.007825032230
         H            3.459176924515    -0.523789116617    -1.098875497990     1.007825032230
         H            1.908197524515    -0.912614416617    -1.914420997990     1.007825032230

  Running in c1 symmetry.

  Rotational constants: A =      0.11697  B =      0.03810  C =      0.02874 [cm^-1]
  Rotational constants: A =   3506.54779  B =   1142.27637  C =    861.60441 [MHz]
  Nuclear repulsion =  406.126937873306986

  Charge       = 1
  Multiplicity = 1
  Electrons    = 64
  Nalpha       = 32
  Nbeta        = 32

  ==> Algorithm <==

  SCF Algorithm Type is DF.
  DIIS enabled.
  MOM disabled.
  Fractional occupation disabled.
  Guess Type is SAD.
  Energy threshold   = 1.00e-08
  Density threshold  = 1.00e-08
  Integral threshold = 0.00e+00

  ==> Primary Basis <==

  Basis Set: STO-3G
    Blend: STO-3G
    Number of shells: 36
    Number of basis function: 54
    Number of Cartesian functions: 54
    Spherical Harmonics?: true
    Max angular momentum: 1

  ==> DFT Potential <==

   => Composite Functional: BLYP <= 

    BLYP GGA Exchange-Correlation Functional

    P.J. Stephens et. al., J. Phys. Chem., 98, 11623-11627, 1994
    B. Miehlich et. al., Chem. Phys. Lett., 157(3), 200-206 1989


    Deriv               =              1
    GGA                 =           TRUE
    Meta                =          FALSE

    Exchange Hybrid     =          FALSE
    MP2 Hybrid          =          FALSE

   => Exchange Functionals <=

    1.0000     XC_GGA_X_B88

   => Correlation Functionals <=

    1.0000     XC_GGA_C_LYP

   => Molecular Quadrature <=

    Radial Scheme          =       TREUTLER
    Pruning Scheme         =           FLAT
    Nuclear Scheme         =       TREUTLER

    BS radius alpha        =              1
    Pruning alpha          =              1
    Radial Points          =             75
    Spherical Points       =            302
    Total Points           =         394937
    Total Blocks           =           2941
    Max Points             =            256
    Max Functions          =             51

   => Loading Basis Set <=

    Name: (STO-3G AUX)
    Role: JKFIT
    Keyword: DF_BASIS_SCF
    atoms 1-7   entry C          line   203 file /home/aaojha/anaconda3/envs/torsiondrive/share/psi4/basis/def2-svp-jkfit.gbs 
    atoms 8-9   entry N          line   263 file /home/aaojha/anaconda3/envs/torsiondrive/share/psi4/basis/def2-svp-jkfit.gbs 
    atoms 10-18 entry H          line    23 file /home/aaojha/anaconda3/envs/torsiondrive/share/psi4/basis/def2-svp-jkfit.gbs 

  ==> Pre-Iterations <==

   -------------------------------------------------------
    Irrep   Nso     Nmo     Nalpha   Nbeta   Ndocc  Nsocc
   -------------------------------------------------------
     A         54      54       0       0       0       0
   -------------------------------------------------------
    Total      54      54      32      32      32       0
   -------------------------------------------------------

  ==> Integral Setup <==

  DFHelper Memory: AOs need 0.024 GiB; user supplied 34.426 GiB. Using in-core AOs.

  ==> MemDFJK: Density-Fitted J/K Matrices <==

    J tasked:                   Yes
    K tasked:                    No
    wK tasked:                   No
    OpenMP threads:               1
    Memory [MiB]:             35251
    Algorithm:                 Core
    Schwarz Cutoff:           1E-12
    Mask sparsity (%):       1.8519
    Fitting Condition:        1E-10

   => Auxiliary Basis Set <=

  Basis Set: (STO-3G AUX)
    Blend: DEF2-SVP-JKFIT
    Number of shells: 279
    Number of basis function: 841
    Number of Cartesian functions: 989
    Spherical Harmonics?: true
    Max angular momentum: 4

  Cached 100.0% of DFT collocation blocks in 0.499 [GiB].

  Minimum eigenvalue in the overlap matrix is 1.8839141063E-01.
  Using Symmetric Orthogonalization.

  SCF Guess: Superposition of Atomic Densities via on-the-fly atomic UHF.

  ==> Iterations <==

                           Total Energy        Delta E     RMS |[F,P]|

   @DF-RKS iter SAD:  -373.14478735187811   -3.73145e+02   0.00000e+00 
   @DF-RKS iter   1:  -376.48649870492704   -3.34171e+00   5.06886e-03 DIIS
   @DF-RKS iter   2:  -376.34499235982707    1.41506e-01   9.85572e-03 DIIS
   @DF-RKS iter   3:  -376.53443077155691   -1.89438e-01   1.74189e-03 DIIS
   @DF-RKS iter   4:  -376.53978450568877   -5.35373e-03   6.83638e-04 DIIS
   @DF-RKS iter   5:  -376.54081069154756   -1.02619e-03   1.55367e-04 DIIS
   @DF-RKS iter   6:  -376.54085826972073   -4.75782e-05   4.32900e-05 DIIS
   @DF-RKS iter   7:  -376.54086171072004   -3.44100e-06   1.05475e-05 DIIS
   @DF-RKS iter   8:  -376.54086195076286   -2.40043e-07   2.83647e-06 DIIS
   @DF-RKS iter   9:  -376.54086196648439   -1.57215e-08   6.94697e-07 DIIS
   @DF-RKS iter  10:  -376.54086196739127   -9.06880e-10   3.87853e-07 DIIS
   @DF-RKS iter  11:  -376.54086196769867   -3.07409e-10   6.38906e-08 DIIS
   @DF-RKS iter  12:  -376.54086196770265   -3.97904e-12   4.49338e-08 DIIS
   @DF-RKS iter  13:  -376.54086196770697   -4.32010e-12   6.69836e-09 DIIS
  Energy and wave function converged.


  ==> Post-Iterations <==

    Orbital Energies [Eh]
    ---------------------

    Doubly Occupied:                                                      

       1A    -14.119473     2A    -14.119396     3A    -10.092098  
       4A     -9.956766     5A     -9.930381     6A     -9.930329  
       7A     -9.917622     8A     -9.914310     9A     -9.914129  
      10A     -1.040837    11A     -0.960502    12A     -0.883107  
      13A     -0.806740    14A     -0.784368    15A     -0.738938  
      16A     -0.678413    17A     -0.669167    18A     -0.636949  
      19A     -0.631560    20A     -0.592588    21A     -0.571273  
      22A     -0.540610    23A     -0.503004    24A     -0.500034  
      25A     -0.489228    26A     -0.486137    27A     -0.421157  
      28A     -0.417921    29A     -0.413572    30A     -0.360177  
      31A     -0.326297    32A     -0.321450  

    Virtual:                                                              

      33A     -0.190361    34A     -0.107866    35A     -0.085386  
      36A      0.005849    37A      0.033314    38A      0.037693  
      39A      0.062167    40A      0.096463    41A      0.124328  
      42A      0.152559    43A      0.182977    44A      0.192012  
      45A      0.219555    46A      0.227963    47A      0.261048  
      48A      0.273754    49A      0.346387    50A      0.351542  
      51A      0.363687    52A      0.370580    53A      0.490411  
      54A      0.532067  

    Final Occupation by Irrep:
              A 
    DOCC [    32 ]

  @DF-RKS Final Energy:  -376.54086196770697

   => Energetics <=

    Nuclear Repulsion Energy =            406.1269378733069857
    One-Electron Energy =               -1302.9929911380377234
    Two-Electron Energy =                 574.6164744540135416
    DFT Exchange-Correlation Energy =     -54.2912831569897989
    Empirical Dispersion Energy =           0.0000000000000000
    VV10 Nonlocal Energy =                  0.0000000000000000
    Total Energy =                       -376.5408619677069169

Computation Completed


Properties will be evaluated at   0.000000,   0.000000,   0.000000 [a0]

Properties computed using the SCF density matrix

  Nuclear Dipole Moment: [e a0]
     X:     1.7974      Y:    -0.0115      Z:    -0.0086

  Electronic Dipole Moment: [e a0]
     X:     0.6553      Y:    -0.0006      Z:    -0.0046

  Dipole Moment: [e a0]
     X:     2.4527      Y:    -0.0120      Z:    -0.0132     Total:     2.4527

  Dipole Moment: [D]
     X:     6.2341      Y:    -0.0306      Z:    -0.0336     Total:     6.2342


*** tstop() called on aaojha at Fri May 14 10:23:59 2021
Module time:
	user time   =       7.03 seconds =       0.12 minutes
	system time =       0.17 seconds =       0.00 minutes
	total time  =          7 seconds =       0.12 minutes
Total time:
	user time   =       7.03 seconds =       0.12 minutes
	system time =       0.17 seconds =       0.00 minutes
	total time  =          7 seconds =       0.12 minutes

*** tstart() called on aaojha
*** at Fri May 14 10:23:59 2021


         ------------------------------------------------------------
                                   SCF GRAD                          
                          Rob Parrish, Justin Turney,                
                       Andy Simmonett, and Alex Sokolov              
         ------------------------------------------------------------

  ==> Geometry <==

    Molecular point group: c1
    Full point group: C1

    Geometry (in Angstrom), charge = 1, multiplicity = 1:

       Center              X                  Y                   Z               Mass       
    ------------   -----------------  -----------------  -----------------  -----------------
         C            0.186477624515    -0.000417916617    -0.001244497990    12.000000000000
         C           -0.552822975485    -0.531040716617    -1.117018197990    12.000000000000
         C           -1.969395575485    -0.525296516617    -1.102840897990    12.000000000000
         C           -2.673298275485     0.006456683383     0.017683402010    12.000000000000
         C           -1.952435775485     0.534869583383     1.128942502010    12.000000000000
         C           -0.535787175485     0.533596683383     1.124106602010    12.000000000000
         C            1.696033724515    -0.004354916617    -0.011104297990    12.000000000000
         N            2.424509424515     0.500997283383     1.051505802010    14.003074004430
         N            2.407811924515    -0.511952116617    -1.083851797990    14.003074004430
         H           -0.037017075485    -0.950794116617    -2.002064197990     1.007825032230
         H           -2.527065475485    -0.936129216617    -1.966887797990     1.007825032230
         H           -3.781955275485     0.009065283383     0.024893102010     1.007825032230
         H           -2.496689575485     0.948369883383     2.000246702010     1.007825032230
         H           -0.006433875485     0.951056583383     2.002184402010     1.007825032230
         H            3.476059624515     0.502718183383     1.054978302010     1.007825032230
         H            1.937994824515     0.899859583383     1.890666602010     1.007825032230
         H            3.459176924515    -0.523789116617    -1.098875497990     1.007825032230
         H            1.908197524515    -0.912614416617    -1.914420997990     1.007825032230

  Nuclear repulsion =  406.126937873306986

  ==> Basis Set <==

  Basis Set: STO-3G
    Blend: STO-3G
    Number of shells: 36
    Number of basis function: 54
    Number of Cartesian functions: 54
    Spherical Harmonics?: true
    Max angular momentum: 1

  ==> DFJKGrad: Density-Fitted SCF Gradients <==

    Gradient:                    1
    J tasked:                  Yes
    K tasked:                   No
    wK tasked:                  No
    OpenMP threads:              1
    Integrals threads:           1
    Memory [MiB]:            35762
    Schwarz Cutoff:          0E+00
    Fitting Condition:       1E-10

   => Auxiliary Basis Set <=

  Basis Set: (STO-3G AUX)
    Blend: DEF2-SVP-JKFIT
    Number of shells: 279
    Number of basis function: 841
    Number of Cartesian functions: 989
    Spherical Harmonics?: true
    Max angular momentum: 4

  ==> DFT Potential <==

   => Composite Functional: BLYP <= 

    BLYP GGA Exchange-Correlation Functional

    P.J. Stephens et. al., J. Phys. Chem., 98, 11623-11627, 1994
    B. Miehlich et. al., Chem. Phys. Lett., 157(3), 200-206 1989


    Deriv               =              1
    GGA                 =           TRUE
    Meta                =          FALSE

    Exchange Hybrid     =          FALSE
    MP2 Hybrid          =          FALSE

   => Exchange Functionals <=

    1.0000     XC_GGA_X_B88

   => Correlation Functionals <=

    1.0000     XC_GGA_C_LYP

   => Molecular Quadrature <=

    Radial Scheme          =       TREUTLER
    Pruning Scheme         =           FLAT
    Nuclear Scheme         =       TREUTLER

    BS radius alpha        =              1
    Pruning alpha          =              1
    Radial Points          =             75
    Spherical Points       =            302
    Total Points           =         394937
    Total Blocks           =           2941
    Max Points             =            256
    Max Functions          =             51


  -Total Gradient:
     Atom            X                  Y                   Z
    ------   -----------------  -----------------  -----------------
       1        0.000106245953     0.000013093050    -0.000023643155
       2        0.000010632157     0.000035745336     0.000122637334
       3       -0.000077874778    -0.000043662151    -0.000097503411
       4        0.000184823378     0.000000033433     0.000000195453
       5       -0.000138978364     0.000096873079     0.000206780375
       6       -0.000073051676    -0.000090172333    -0.000192652240
       7        0.000193024036    -0.000077679643    -0.000031849646
       8       -0.000096781988     0.000103791665     0.000162284015
       9       -0.000107570604     0.000044972432    -0.000196979415
      10        0.000017737924     0.000006572162     0.000001961797
      11        0.000001658794    -0.000007245848    -0.000012398304
      12        0.000016079267     0.000003919330     0.000008239502
      13       -0.000012350361     0.000007664656     0.000015782229
      14       -0.000022843643    -0.000005826477    -0.000012795794
      15        0.000003917132    -0.000052451189    -0.000077434766
      16        0.000003840337     0.000013495136     0.000041677163
      17       -0.000011633327     0.000006163949     0.000109411501
      18       -0.000012320569    -0.000055217136    -0.000023547828


*** tstop() called on aaojha at Fri May 14 10:24:01 2021
Module time:
	user time   =       2.02 seconds =       0.03 minutes
	system time =       0.00 seconds =       0.00 minutes
	total time  =          2 seconds =       0.03 minutes
Total time:
	user time   =       9.05 seconds =       0.15 minutes
	system time =       0.17 seconds =       0.00 minutes
	total time  =          9 seconds =       0.15 minutes

    Psi4 stopped on: Friday, 14 May 2021 10:24AM
    Psi4 wall time for execution: 0:00:09.26

*** Psi4 exiting successfully. Buy a developer a beer!
