Title Card Required                                                     
Freq      RB3LYP                                                      6-31G               
Number of atoms                            I               11
Info1-9                                    I   N=           9
          30          30        1002           0           0         100
           6          18        -502
Full Title                                 C   N=           2
Title Card Required     
Route                                      C   N=           4
# B3LYP/6-31G OPT FREQ geom=connectivity        
Charge                                     I                0
Multiplicity                               I                1
Number of electrons                        I               26
Number of alpha electrons                  I               13
Number of beta electrons                   I               13
Number of basis functions                  I               43
Number of independent functions            I               43
Number of point charges in /Mol/           I                0
Number of translation vectors              I                0
Atomic numbers                             I   N=          11
           6           1           1           6           1           1
           1           6           1           1           1
Nuclear charges                            R   N=          11
  6.00000000E+00  1.00000000E+00  1.00000000E+00  6.00000000E+00  1.00000000E+00
  1.00000000E+00  1.00000000E+00  6.00000000E+00  1.00000000E+00  1.00000000E+00
  1.00000000E+00
Current cartesian coordinates              R   N=          33
  3.94007206E-08  1.11369162E+00 -1.20603959E-06  1.03140156E-06  2.36157195E+00
 -1.66089599E+00 -7.54099155E-07  2.36163419E+00  1.66085227E+00 -2.42020584E+00
 -4.93587913E-01  4.96959863E-07 -2.49944224E+00 -1.71622811E+00  1.67360862E+00
 -4.12012788E+00  6.91441371E-01 -7.74506479E-05 -2.49937998E+00 -1.71636342E+00
 -1.67351219E+00  2.42020581E+00 -4.93587974E-01  1.60322328E-06  4.12012786E+00
  6.91441221E-01 -3.94758755E-04  2.49959153E+00 -1.71599988E+00  1.67376746E+00
  2.49923039E+00 -1.71659171E+00 -1.67335333E+00
Number of symbols in /Mol/                 I                0
Force Field                                I                0
Atom Types                                 C   N=          11
                                                            
                                                            
            
Int Atom Types                             I   N=          11
           0           0           0           0           0           0
           0           0           0           0           0
MM charges                                 R   N=          11
  0.00000000E+00  0.00000000E+00  0.00000000E+00  0.00000000E+00  0.00000000E+00
  0.00000000E+00  0.00000000E+00  0.00000000E+00  0.00000000E+00  0.00000000E+00
  0.00000000E+00
Integer atomic weights                     I   N=          11
          12           1           1          12           1           1
           1          12           1           1           1
Real atomic weights                        R   N=          11
  1.20000000E+01  1.00782504E+00  1.00782504E+00  1.20000000E+01  1.00782504E+00
  1.00782504E+00  1.00782504E+00  1.20000000E+01  1.00782504E+00  1.00782504E+00
  1.00782504E+00
Atom fragment info                         I   N=          11
           0           0           0           0           0           0
           0           0           0           0           0
Atom residue num                           I   N=          11
           0           0           0           0           0           0
           0           0           0           0           0
Nuclear spins                              I   N=          11
           0           1           1           0           1           1
           1           0           1           1           1
Nuclear ZEff                               R   N=          11
 -3.60000000E+00 -1.00000000E+00 -1.00000000E+00 -3.60000000E+00 -1.00000000E+00
 -1.00000000E+00 -1.00000000E+00 -3.60000000E+00 -1.00000000E+00 -1.00000000E+00
 -1.00000000E+00
Nuclear ZNuc                               R   N=          11
  6.00000000E+00  1.00000000E+00  1.00000000E+00  6.00000000E+00  1.00000000E+00
  1.00000000E+00  1.00000000E+00  6.00000000E+00  1.00000000E+00  1.00000000E+00
  1.00000000E+00
Nuclear QMom                               R   N=          11
  0.00000000E+00  0.00000000E+00  0.00000000E+00  0.00000000E+00  0.00000000E+00
  0.00000000E+00  0.00000000E+00  0.00000000E+00  0.00000000E+00  0.00000000E+00
  0.00000000E+00
Nuclear GFac                               R   N=          11
  0.00000000E+00  2.79284600E+00  2.79284600E+00  0.00000000E+00  2.79284600E+00
  2.79284600E+00  2.79284600E+00  0.00000000E+00  2.79284600E+00  2.79284600E+00
  2.79284600E+00
MicOpt                                     I   N=          11
          -1          -1          -1          -1          -1          -1
          -1          -1          -1          -1          -1
Number of residues                         I                0
Number of secondary structures             I                0
Redundant internal dimensions              I   N=           4
          46          10          18          18
Redundant internal coordinate indices      I   N=         184
           1           2           0           0           1           3
           0           0           1           4           0           0
           1           8           0           0           4           5
           0           0           4           6           0           0
           4           7           0           0           8           9
           0           0           8          10           0           0
           8          11           0           0           2           1
           3           0           2           1           4           0
           2           1           8           0           3           1
           4           0           3           1           8           0
           4           1           8           0           1           4
           5           0           1           4           6           0
           1           4           7           0           5           4
           6           0           5           4           7           0
           6           4           7           0           1           8
           9           0           1           8          10           0
           1           8          11           0           9           8
          10           0           9           8          11           0
          10           8          11           0           2           1
           4           5           2           1           4           6
           2           1           4           7           3           1
           4           5           3           1           4           6
           3           1           4           7           8           1
           4           5           8           1           4           6
           8           1           4           7           2           1
           8           9           2           1           8          10
           2           1           8          11           3           1
           8           9           3           1           8          10
           3           1           8          11           4           1
           8           9           4           1           8          10
           4           1           8          11
Redundant internal coordinates             R   N=          46
  2.07744478E+00  2.07744915E+00  2.90529585E+00  2.90529579E+00  2.07414841E+00
  2.07220398E+00  2.07414879E+00  2.07220398E+00  2.07414683E+00  2.07415037E+00
  1.85285303E+00  1.90954984E+00  1.90954934E+00  1.90956492E+00  1.90956529E+00
  1.96913353E+00  1.93684717E+00  1.94658071E+00  1.93685796E+00  1.88156338E+00
  1.87765563E+00  1.88156461E+00  1.94658071E+00  1.93684683E+00  1.93685823E+00
  1.88156569E+00  1.88156235E+00  1.87765566E+00 -3.10971661E+00 -1.01152216E+00
  1.08668119E+00 -1.08662478E+00  1.01156967E+00  3.10977303E+00  1.04343757E+00
 -3.14155328E+00 -1.04334993E+00  1.01135629E+00  3.10955344E+00 -1.08684437E+00
 -1.01173547E+00  1.08646168E+00 -3.10993614E+00  3.14138769E+00 -1.04360046E+00
  1.04318703E+00
ZRed-IntVec                                I   N=          46
           0           0           0           0           0           0
           0           0           0           0           0           0
           0           0           0           0           0           0
           0           0           0           0           0           0
           0           0           0           0           0           0
           0           0           0           0           0           0
           0           0           0           0           0           0
           0           0           0           0
ZRed-FPVec                                 R   N=          46
  0.00000000E+00  0.00000000E+00  0.00000000E+00  0.00000000E+00  0.00000000E+00
  0.00000000E+00  0.00000000E+00  0.00000000E+00  0.00000000E+00  0.00000000E+00
  0.00000000E+00  0.00000000E+00  0.00000000E+00  0.00000000E+00  0.00000000E+00
  0.00000000E+00  0.00000000E+00  0.00000000E+00  0.00000000E+00  0.00000000E+00
  0.00000000E+00  0.00000000E+00  0.00000000E+00  0.00000000E+00  0.00000000E+00
  0.00000000E+00  0.00000000E+00  0.00000000E+00  0.00000000E+00  0.00000000E+00
  0.00000000E+00  0.00000000E+00  0.00000000E+00  0.00000000E+00  0.00000000E+00
  0.00000000E+00  0.00000000E+00  0.00000000E+00  0.00000000E+00  0.00000000E+00
  0.00000000E+00  0.00000000E+00  0.00000000E+00  0.00000000E+00  0.00000000E+00
  0.00000000E+00
ZRed-Constraint1                           R   N=          46
  2.07744478E+00  2.07744915E+00  2.90529585E+00  2.90529579E+00  2.07414841E+00
  2.07220398E+00  2.07414879E+00  2.07220398E+00  2.07414683E+00  2.07415037E+00
  1.85285303E+00  1.90954984E+00  1.90954934E+00  1.90956492E+00  1.90956529E+00
  1.96913353E+00  1.93684717E+00  1.94658071E+00  1.93685796E+00  1.88156338E+00
  1.87765563E+00  1.88156461E+00  1.94658071E+00  1.93684683E+00  1.93685823E+00
  1.88156569E+00  1.88156235E+00  1.87765566E+00 -3.10971661E+00 -1.01152216E+00
  1.08668119E+00 -1.08662478E+00  1.01156967E+00  3.10977303E+00  1.04343757E+00
 -3.14155328E+00 -1.04334993E+00  1.01135629E+00  3.10955344E+00 -1.08684437E+00
 -1.01173547E+00  1.08646168E+00 -3.10993614E+00  3.14138769E+00 -1.04360046E+00
  1.04318703E+00
ZRed-Constraint2                           R   N=          46
  2.02200695E+00  2.02200695E+00  2.91017823E+00  2.91017823E+00  2.02200695E+00
  2.02200696E+00  2.02200696E+00  2.02200695E+00  2.02200694E+00  2.02200696E+00
  1.91063323E+00  1.91063324E+00  1.91063324E+00  1.91063323E+00  1.91063324E+00
  1.91063324E+00  1.91063292E+00  1.91063292E+00  1.91063342E+00  1.91063376E+00
  1.91063320E+00  1.91063319E+00  1.91063292E+00  1.91063292E+00  1.91063342E+00
  1.91063377E+00  1.91063319E+00  1.91063320E+00 -3.14159199E+00 -1.04719663E+00
  1.04719834E+00 -1.04719690E+00  1.04719847E+00 -3.14159187E+00  1.04719821E+00
 -3.14159173E+00 -1.04719677E+00  1.04479820E+00  3.13919357E+00 -1.04959676E+00
 -1.04959690E+00  1.04479846E+00  3.13919344E+00  3.13919331E+00 -1.04959664E+00
  1.04479834E+00
SymInf integers                            I   N=          26
           1           1           1           1           1           0
           0           0           0           0           0           0
           0           0           0           0           0           0
           0           0           0           0           0           0
           0           0
RotTr to input orientation                 R   N=          12
  8.16489426E-01 -5.77359935E-01 -7.22526330E-04  5.77360248E-01  8.16489458E-01
  3.28812980E-04  4.00091691E-04 -6.85630303E-04  9.99999685E-01 -7.00399429E+00
  2.90463108E+00  1.71211298E-03
Number of contracted shells                I               25
Number of primitive shells                 I               62
Pure/Cartesian d shells                    I                1
Pure/Cartesian f shells                    I                0
Highest angular momentum                   I                1
Largest degree of contraction              I                6
Shell types                                I   N=          25
           0          -1          -1           0           0           0
           0           0          -1          -1           0           0
           0           0           0           0           0          -1
          -1           0           0           0           0           0
           0
Number of primitives per shell             I   N=          25
           6           3           1           3           1           3
           1           6           3           1           3           1
           3           1           3           1           6           3
           1           3           1           3           1           3
           1
Shell to atom map                          I   N=          25
           1           1           1           2           2           3
           3           4           4           4           5           5
           6           6           7           7           8           8
           8           9           9          10          10          11
          11
Primitive exponents                        R   N=          62
  3.04752488E+03  4.57369518E+02  1.03948685E+02  2.92101553E+01  9.28666296E+00
  3.16392696E+00  7.86827235E+00  1.88128854E+00  5.44249258E-01  1.68714478E-01
  1.87311370E+01  2.82539436E+00  6.40121692E-01  1.61277759E-01  1.87311370E+01
  2.82539436E+00  6.40121692E-01  1.61277759E-01  3.04752488E+03  4.57369518E+02
  1.03948685E+02  2.92101553E+01  9.28666296E+00  3.16392696E+00  7.86827235E+00
  1.88128854E+00  5.44249258E-01  1.68714478E-01  1.87311370E+01  2.82539436E+00
  6.40121692E-01  1.61277759E-01  1.87311370E+01  2.82539436E+00  6.40121692E-01
  1.61277759E-01  1.87311370E+01  2.82539436E+00  6.40121692E-01  1.61277759E-01
  3.04752488E+03  4.57369518E+02  1.03948685E+02  2.92101553E+01  9.28666296E+00
  3.16392696E+00  7.86827235E+00  1.88128854E+00  5.44249258E-01  1.68714478E-01
  1.87311370E+01  2.82539436E+00  6.40121692E-01  1.61277759E-01  1.87311370E+01
  2.82539436E+00  6.40121692E-01  1.61277759E-01  1.87311370E+01  2.82539436E+00
  6.40121692E-01  1.61277759E-01
Contraction coefficients                   R   N=          62
  1.83473713E-03  1.40373228E-02  6.88426223E-02  2.32184443E-01  4.67941348E-01
  3.62311985E-01 -1.19332420E-01 -1.60854152E-01  1.14345644E+00  1.00000000E+00
  3.34946043E-02  2.34726953E-01  8.13757326E-01  1.00000000E+00  3.34946043E-02
  2.34726953E-01  8.13757326E-01  1.00000000E+00  1.83473713E-03  1.40373228E-02
  6.88426223E-02  2.32184443E-01  4.67941348E-01  3.62311985E-01 -1.19332420E-01
 -1.60854152E-01  1.14345644E+00  1.00000000E+00  3.34946043E-02  2.34726953E-01
  8.13757326E-01  1.00000000E+00  3.34946043E-02  2.34726953E-01  8.13757326E-01
  1.00000000E+00  3.34946043E-02  2.34726953E-01  8.13757326E-01  1.00000000E+00
  1.83473713E-03  1.40373228E-02  6.88426223E-02  2.32184443E-01  4.67941348E-01
  3.62311985E-01 -1.19332420E-01 -1.60854152E-01  1.14345644E+00  1.00000000E+00
  3.34946043E-02  2.34726953E-01  8.13757326E-01  1.00000000E+00  3.34946043E-02
  2.34726953E-01  8.13757326E-01  1.00000000E+00  3.34946043E-02  2.34726953E-01
  8.13757326E-01  1.00000000E+00
P(S=P) Contraction coefficients            R   N=          62
  0.00000000E+00  0.00000000E+00  0.00000000E+00  0.00000000E+00  0.00000000E+00
  0.00000000E+00  6.89990666E-02  3.16423961E-01  7.44308291E-01  1.00000000E+00
  0.00000000E+00  0.00000000E+00  0.00000000E+00  0.00000000E+00  0.00000000E+00
  0.00000000E+00  0.00000000E+00  0.00000000E+00  0.00000000E+00  0.00000000E+00
  0.00000000E+00  0.00000000E+00  0.00000000E+00  0.00000000E+00  6.89990666E-02
  3.16423961E-01  7.44308291E-01  1.00000000E+00  0.00000000E+00  0.00000000E+00
  0.00000000E+00  0.00000000E+00  0.00000000E+00  0.00000000E+00  0.00000000E+00
  0.00000000E+00  0.00000000E+00  0.00000000E+00  0.00000000E+00  0.00000000E+00
  0.00000000E+00  0.00000000E+00  0.00000000E+00  0.00000000E+00  0.00000000E+00
  0.00000000E+00  6.89990666E-02  3.16423961E-01  7.44308291E-01  1.00000000E+00
  0.00000000E+00  0.00000000E+00  0.00000000E+00  0.00000000E+00  0.00000000E+00
  0.00000000E+00  0.00000000E+00  0.00000000E+00  0.00000000E+00  0.00000000E+00
  0.00000000E+00  0.00000000E+00
Coordinates of each shell                  R   N=          75
  3.94007206E-08  1.11369162E+00 -1.20603959E-06  3.94007206E-08  1.11369162E+00
 -1.20603959E-06  3.94007206E-08  1.11369162E+00 -1.20603959E-06  1.03140156E-06
  2.36157195E+00 -1.66089599E+00  1.03140156E-06  2.36157195E+00 -1.66089599E+00
 -7.54099155E-07  2.36163419E+00  1.66085227E+00 -7.54099155E-07  2.36163419E+00
  1.66085227E+00 -2.42020584E+00 -4.93587913E-01  4.96959863E-07 -2.42020584E+00
 -4.93587913E-01  4.96959863E-07 -2.42020584E+00 -4.93587913E-01  4.96959863E-07
 -2.49944224E+00 -1.71622811E+00  1.67360862E+00 -2.49944224E+00 -1.71622811E+00
  1.67360862E+00 -4.12012788E+00  6.91441371E-01 -7.74506479E-05 -4.12012788E+00
  6.91441371E-01 -7.74506479E-05 -2.49937998E+00 -1.71636342E+00 -1.67351219E+00
 -2.49937998E+00 -1.71636342E+00 -1.67351219E+00  2.42020581E+00 -4.93587974E-01
  1.60322328E-06  2.42020581E+00 -4.93587974E-01  1.60322328E-06  2.42020581E+00
 -4.93587974E-01  1.60322328E-06  4.12012786E+00  6.91441221E-01 -3.94758755E-04
  4.12012786E+00  6.91441221E-01 -3.94758755E-04  2.49959153E+00 -1.71599988E+00
  1.67376746E+00  2.49959153E+00 -1.71599988E+00  1.67376746E+00  2.49923039E+00
 -1.71659171E+00 -1.67335333E+00  2.49923039E+00 -1.71659171E+00 -1.67335333E+00
Num ILSW                                   I              100
ILSW                                       I   N=         100
           0           1           0           0           2           0
           0           0           0           0         402          -1
           5           0           0           0           2           0
           0           0           1           0           1           0
           1           0           0           0           0           0
           0           0      100000           0          -1           0
           0           0           0           0           0           0
           0           0           0           1           0           0
           0 -2000000000           1           0           0           0
           0           0           4          52           0           0
           0           0           5           0           0           0
           0           0           0           0           0           1
           0           0           0           0           0           0
           0           0           0           0           0           0
           0           0           0           0           0           0
           0           0           0           0           0           0
           0           0           0           0
Num RLSW                                   I               52
RLSW                                       R   N=          52
  8.00000000E-01  7.20000000E-01  1.00000000E+00  8.10000000E-01  2.00000000E-01
  0.00000000E+00  0.00000000E+00  1.00000000E+00  0.00000000E+00  0.00000000E+00
  0.00000000E+00  0.00000000E+00  1.00000000E+00  0.00000000E+00  0.00000000E+00
  0.00000000E+00  0.00000000E+00  1.00000000E+00  0.00000000E+00  0.00000000E+00
  0.00000000E+00  0.00000000E+00  1.00000000E+00  0.00000000E+00  0.00000000E+00
  0.00000000E+00  0.00000000E+00  1.00000000E+00  0.00000000E+00  0.00000000E+00
  0.00000000E+00  0.00000000E+00  1.00000000E+00  0.00000000E+00  0.00000000E+00
  0.00000000E+00  0.00000000E+00  0.00000000E+00  1.00000000E+00  1.00000000E+00
  0.00000000E+00  1.00000000E+00  0.00000000E+00  0.00000000E+00  0.00000000E+00
  0.00000000E+00  0.00000000E+00  0.00000000E+00  0.00000000E+00  0.00000000E+00
  0.00000000E+00  0.00000000E+00
MxBond                                     I                4
NBond                                      I   N=          11
           4           1           1           4           1           1
           1           4           1           1           1
IBond                                      I   N=          44
           2           3           4           8           1           0
           0           0           1           0           0           0
           1           5           6           7           4           0
           0           0           4           0           0           0
           4           0           0           0           1           9
          10          11           8           0           0           0
           8           0           0           0           8           0
           0           0
RBond                                      R   N=          44
  1.00000000E+00  1.00000000E+00  1.00000000E+00  1.00000000E+00  1.00000000E+00
  0.00000000E+00  0.00000000E+00  0.00000000E+00  1.00000000E+00  0.00000000E+00
  0.00000000E+00  0.00000000E+00  1.00000000E+00  1.00000000E+00  1.00000000E+00
  1.00000000E+00  1.00000000E+00  0.00000000E+00  0.00000000E+00  0.00000000E+00
  1.00000000E+00  0.00000000E+00  0.00000000E+00  0.00000000E+00  1.00000000E+00
  0.00000000E+00  0.00000000E+00  0.00000000E+00  1.00000000E+00  1.00000000E+00
  1.00000000E+00  1.00000000E+00  1.00000000E+00  0.00000000E+00  0.00000000E+00
  0.00000000E+00  1.00000000E+00  0.00000000E+00  0.00000000E+00  0.00000000E+00
  1.00000000E+00  0.00000000E+00  0.00000000E+00  0.00000000E+00
Virial Ratio                               R      2.006335071201405E+00
SCF Energy                                 R     -1.191168488338209E+02
Total Energy                               R     -1.191168488338209E+02
RMS Force                                  R      5.577471968964228E-05
RMS Density                                R      3.865780252106723E-10
NImag                                      I                0
Job Status                                 I                1
Nuclear derivative order                   I                2
External E-field                           R   N=          35
  0.00000000E+00  0.00000000E+00  0.00000000E+00  0.00000000E+00  0.00000000E+00
  0.00000000E+00  0.00000000E+00  0.00000000E+00  0.00000000E+00  0.00000000E+00
  0.00000000E+00  0.00000000E+00  0.00000000E+00  0.00000000E+00  0.00000000E+00
  0.00000000E+00  0.00000000E+00  0.00000000E+00  0.00000000E+00  0.00000000E+00
  0.00000000E+00  0.00000000E+00  0.00000000E+00  0.00000000E+00  0.00000000E+00
  0.00000000E+00  0.00000000E+00  0.00000000E+00  0.00000000E+00  0.00000000E+00
  0.00000000E+00  0.00000000E+00  0.00000000E+00  0.00000000E+00  0.00000000E+00
IOpCl                                      I                0
IROHF                                      I                0
Alpha Orbital Energies                     R   N=          43
 -1.01743831E+01 -1.01645616E+01 -1.01645314E+01 -7.75666816E-01 -6.78141807E-01
 -5.83045611E-01 -4.52875941E-01 -4.32291973E-01 -3.94750478E-01 -3.77667004E-01
 -3.33862774E-01 -3.32737210E-01 -3.24194888E-01  9.51517052E-02  1.47303382E-01
  1.48858275E-01  1.50300748E-01  1.69439825E-01  1.93217141E-01  1.94956606E-01
  1.95060679E-01  2.25817398E-01  2.63311402E-01  5.33117525E-01  5.49293842E-01
  5.68620854E-01  5.83644948E-01  5.99293588E-01  6.71353118E-01  7.07192195E-01
  7.47280080E-01  8.06735072E-01  8.99791443E-01  9.11063556E-01  9.52940414E-01
  9.53849342E-01  9.67324469E-01  9.83704125E-01  9.96137617E-01  1.04308593E+00
  1.06424232E+00  1.39359463E+00  1.56221785E+00
Alpha MO coefficients                      R   N=        1849
  9.95441805E-01  3.81751654E-02  1.26920109E-10  1.24350506E-04 -3.29443657E-08
 -3.80170302E-02 -7.17553757E-10  2.14385785E-03  2.67229163E-07 -1.79052459E-04
  5.96883817E-03 -1.79102365E-04  5.96864711E-03  6.37830674E-03 -9.87057723E-04
 -2.68441185E-04 -2.87062460E-04  6.66497393E-09  8.85019469E-03  3.94959530E-03
  2.58628844E-03 -9.93785037E-08 -3.37876250E-04  2.35562115E-04 -2.78798414E-04
 -8.08578392E-05 -3.37894200E-04  2.35479811E-04  6.37830666E-03 -9.87057851E-04
  2.68441241E-04 -2.87062479E-04  3.27494172E-08  8.85019586E-03 -3.94959558E-03
  2.58628878E-03 -2.54188321E-07 -2.78798402E-04 -8.08578825E-05 -3.37881523E-04
  2.35684943E-04 -3.37888897E-04  2.35356855E-04 -4.72130744E-07 -8.64699807E-08
  5.56680823E-04  2.40137500E-08  1.98127395E-09  4.87914829E-07 -5.57188912E-03
 -1.46097295E-07 -1.15826173E-07 -2.29738790E-08 -2.21914283E-08 -9.95384557E-09
  6.38727441E-08  7.03901486E-01  2.69910566E-02  1.56449891E-04 -2.00162623E-04
  1.14316237E-08 -2.48421180E-02 -2.02893943E-03  1.55217681E-04 -3.01315798E-09
 -1.75581529E-04  4.64354394E-03 -3.49641796E-04  3.18987455E-03 -1.75619083E-04
  4.64374618E-03 -7.03828077E-01 -2.69883713E-02  1.56477872E-04  2.00157336E-04
 -6.99002687E-08  2.48398345E-02 -2.02892654E-03 -1.55295375E-04  4.27075993E-07
  3.49602554E-04 -3.18940595E-03  1.75563433E-04 -4.64341831E-03  1.75542113E-04
 -4.64310094E-03 -9.05092486E-03 -1.65939684E-03 -2.90774878E-08  4.60974229E-04
  2.75130465E-08  9.36879372E-03  2.90770315E-07 -2.80580278E-03 -2.02418298E-07
 -3.15376179E-04  3.98841542E-04 -3.15353125E-04  3.99018146E-04  7.03682756E-01
  2.57419870E-02 -2.67272992E-04 -5.00013285E-05  8.15544882E-09 -2.18944423E-02
 -1.28664678E-04 -7.48677110E-04  2.31888572E-08 -4.55291562E-04  3.69405904E-03
 -3.76222789E-04  4.49155434E-03 -4.55254598E-04  3.69391936E-03  7.03756180E-01
  2.57448026E-02  2.67256582E-04 -5.00221580E-05 -2.53095912E-08 -2.18970341E-02
  1.28876695E-04 -7.48661137E-04  2.44511975E-07 -3.76259237E-04  4.49188702E-03
 -4.55290163E-04  3.69437893E-03 -4.55292629E-04  3.69456828E-03 -1.46500370E-01
  2.77968552E-01  1.26250145E-08 -3.84328194E-02 -9.32346761E-07  2.32897168E-01
  2.99874695E-09 -4.50025885E-03  7.74183131E-08  7.91033928E-02  1.30893199E-02
  7.91025592E-02  1.30889979E-02 -1.09924303E-01  2.09496420E-01  4.87081075E-02
  2.52116253E-02  1.23626055E-07  1.69050669E-01  4.64936472E-03  1.77574775E-03
 -5.33109390E-08  6.03600382E-02  1.17080005E-02  5.74170529E-02  9.63166755E-03
  6.03600280E-02  1.17085446E-02 -1.09924315E-01  2.09496442E-01 -4.87081138E-02
  2.52116333E-02  1.55625133E-07  1.69050686E-01 -4.64936520E-03  1.77575025E-03
 -9.59910639E-08  5.74170590E-02  9.63166836E-03  6.03597071E-02  1.17079830E-02
  6.03603714E-02  1.17085650E-02  9.69324785E-10 -2.01275798E-09 -1.42254007E-01
 -9.80549798E-10 -1.11416285E-08  8.61933781E-10 -2.46331850E-02 -1.53299727E-09
 -4.03154102E-07 -4.01866825E-08 -1.69120303E-07  3.36763707E-08  1.67095441E-07
 -1.41901664E-01  2.72538287E-01 -2.74357974E-02 -4.75072796E-04  5.46931098E-07
  2.71611278E-01 -8.07439060E-03  3.92659199E-04  2.76449784E-07  9.69508148E-02
  2.55525589E-02  1.05635625E-01  3.11948316E-02  9.69502436E-02  2.55519059E-02
  1.41901647E-01 -2.72538253E-01 -2.74357867E-02  4.75063958E-04 -8.59462117E-07
 -2.71611248E-01 -8.07438645E-03 -3.92663426E-04  2.20023539E-07 -1.05635612E-01
 -3.11948277E-02 -9.69520880E-02 -2.55534058E-02 -9.69489406E-02 -2.55510500E-02
 -1.30699154E-01  2.55246354E-01  6.58186077E-10  1.33027941E-01 -2.06346786E-06
  3.01163869E-01  4.91537633E-09  3.61769854E-02 -1.21095922E-07  1.39201276E-01
  5.82554601E-02  1.39201654E-01  5.82555327E-02  8.12665471E-02 -1.57822947E-01
  9.52964475E-02  1.01833195E-01 -3.66796421E-07 -1.88193020E-01  1.98812953E-02
  3.01572924E-02 -5.00140517E-07 -9.39580222E-02 -4.18535366E-02 -7.39319625E-02
 -3.10198483E-02 -9.39599481E-02 -4.18552545E-02  8.12665619E-02 -1.57822976E-01
 -9.52964477E-02  1.01833203E-01 -2.79123830E-07 -1.88193058E-01 -1.98812920E-02
  3.01572906E-02 -1.10019910E-06 -7.39319750E-02 -3.10198541E-02 -9.39557903E-02
 -4.18517962E-02 -9.39622019E-02 -4.18570044E-02  1.49080853E-07 -7.54651808E-07
 -5.21846443E-07  5.77503435E-06  3.09744759E-01  1.39381886E-06 -5.99717674E-07
  1.02360848E-06  1.34405656E-01 -1.43775346E-01 -1.03417965E-01  1.43775230E-01
  1.03419404E-01 -4.18885927E-07  1.47157400E-06 -5.08528288E-06  4.81788896E-06
  2.30831179E-01 -6.68277862E-07 -3.79443741E-06  2.45057377E-06  9.63380110E-02
  1.10294976E-01  8.40260395E-02 -5.50232278E-07 -1.18501253E-06 -1.10291236E-01
 -8.40229787E-02 -4.36389761E-07  1.02295340E-06  3.80644566E-06  2.87536674E-06
  2.30831207E-01  6.69859316E-07  1.67079395E-06  6.23762170E-07  9.63380274E-02
 -2.26849174E-05 -1.66438803E-05  1.10305794E-01  8.40335371E-02 -1.10280442E-01
 -8.40154915E-02 -2.38214677E-02  4.87372733E-02 -2.51197828E-08 -2.44245559E-01
  7.60997702E-06  6.52426263E-02 -1.57675011E-08 -1.03909356E-01  2.07294870E-06
 -6.31648775E-02 -5.43774759E-02 -6.31604402E-02 -5.43716082E-02  9.15165466E-03
 -1.69171832E-02  2.62565903E-01 -1.28524686E-01  3.99462995E-06 -3.25636916E-02
  1.13358233E-01 -6.19877777E-02  1.65871004E-06  3.21907605E-02  2.78995916E-02
 -1.83590267E-01 -1.36167545E-01  3.21977121E-02  2.79058856E-02  9.15165480E-03
 -1.69171842E-02 -2.62565914E-01 -1.28524724E-01  6.78959773E-06 -3.25636844E-02
 -1.13358237E-01 -6.19877909E-02  3.92811202E-06 -1.83590286E-01 -1.36167562E-01
  3.21715870E-02  2.78847171E-02  3.22169238E-02  2.79207854E-02 -6.95559606E-10
  1.51383351E-09 -2.42618352E-01  1.12250315E-08 -5.92380119E-07  4.67452000E-10
 -1.25460166E-01  4.68342492E-09 -4.73897695E-07 -1.32357440E-07 -8.61443428E-07
  1.29182241E-07  8.63371110E-07  3.25996467E-03 -3.34519347E-03  1.79536444E-03