
    -----------------------------------------------------------------------
          Psi4: An Open-Source Ab Initio Electronic Structure Package
                               Psi4 1.3.2 release

                         Git: Rev {HEAD} ecbda83 


    R. M. Parrish, L. A. Burns, D. G. A. Smith, A. C. Simmonett,
    A. E. DePrince III, E. G. Hohenstein, U. Bozkaya, A. Yu. Sokolov,
    R. Di Remigio, R. M. Richard, J. F. Gonthier, A. M. James,
    H. R. McAlexander, A. Kumar, M. Saitow, X. Wang, B. P. Pritchard,
    P. Verma, H. F. Schaefer III, K. Patkowski, R. A. King, E. F. Valeev,
    F. A. Evangelista, J. M. Turney, T. D. Crawford, and C. D. Sherrill,
    J. Chem. Theory Comput. 13(7) pp 3185--3197 (2017).
    (doi: 10.1021/acs.jctc.7b00174)


                         Additional Contributions by
    P. Kraus, H. Kruse, M. H. Lechner, M. C. Schieber, R. A. Shaw,
    A. Alenaizan, R. Galvelis, Z. L. Glick, S. Lehtola, and J. P. Misiewicz

    -----------------------------------------------------------------------


    Psi4 started on: Friday, 14 May 2021 10:20AM

    Process ID: 29915
    Host:       aaojha
    PSIDATADIR: /home/aaojha/anaconda3/envs/torsiondrive/share/psi4
    Memory:     500.0 MiB
    Threads:    1
    
  ==> Input File <==

--------------------------------------------------------------------------
memory 50 GB
molecule {
1 1
C           0.1507853     0.0000382     0.0112427
C          -0.5762909    -0.7003065     1.0342755
C          -1.9936587    -0.6983541     1.0139738
C          -2.6948238     0.0035499    -0.0110379
C          -1.9759163     0.7028697    -1.0255402
C          -0.5584432     0.6999387    -1.0245084
C           1.6576763    -0.0086300     0.0188127
N           2.3681168     0.0797833    -1.1638087
N           2.3550762    -0.1128689     1.2079380
H          -0.0395336    -1.2746573     1.8142167
H          -2.5545362    -1.2497353     1.7936294
H          -3.8033817     0.0052501    -0.0195291
H          -2.5231855     1.2551165    -1.8141990
H          -0.0080546     1.2719896    -1.7966370
H           3.4195272     0.1171174    -1.1910575
H           1.8578176     0.0520615    -2.0815551
H           3.4055255    -0.1652817     1.2454947
H           1.8368946    -0.0742216     2.1208702
}
set {
basis STO-3G
}
gradient('BLYP')
--------------------------------------------------------------------------

  Memory set to  46.566 GiB by Python driver.
gradient() will perform analytic gradient computation.

*** tstart() called on aaojha
*** at Fri May 14 10:20:05 2021

   => Loading Basis Set <=

    Name: STO-3G
    Role: ORBITAL
    Keyword: BASIS
    atoms 1-7   entry C          line    61 file /home/aaojha/anaconda3/envs/torsiondrive/share/psi4/basis/sto-3g.gbs 
    atoms 8-9   entry N          line    71 file /home/aaojha/anaconda3/envs/torsiondrive/share/psi4/basis/sto-3g.gbs 
    atoms 10-18 entry H          line    19 file /home/aaojha/anaconda3/envs/torsiondrive/share/psi4/basis/sto-3g.gbs 


         ---------------------------------------------------------
                                   SCF
               by Justin Turney, Rob Parrish, Andy Simmonett
                          and Daniel G. A. Smith
                              RKS Reference
                        1 Threads,  47683 MiB Core
         ---------------------------------------------------------

  ==> Geometry <==

    Molecular point group: c1
    Full point group: C1

    Geometry (in Angstrom), charge = 1, multiplicity = 1:

       Center              X                  Y                   Z               Mass       
    ------------   -----------------  -----------------  -----------------  -----------------
         C            0.185022401951     0.004472402802     0.003839492822    12.000000000000
         C           -0.542053798049    -0.695872297198     1.026872292822    12.000000000000
         C           -1.959421598049    -0.693919897198     1.006570592822    12.000000000000
         C           -2.660586698049     0.007984102802    -0.018441107178    12.000000000000
         C           -1.941679198049     0.707303902802    -1.032943407178    12.000000000000
         C           -0.524206098049     0.704372902802    -1.031911607178    12.000000000000
         C            1.691913401951    -0.004195797198     0.011409492822    12.000000000000
         N            2.402353901951     0.084217502802    -1.171211907178    14.003074004430
         N            2.389313301951    -0.108434697198     1.200534792822    14.003074004430
         H           -0.005296498049    -1.270223097198     1.806813492822     1.007825032230
         H           -2.520299098049    -1.245301097198     1.786226192822     1.007825032230
         H           -3.769144598049     0.009684302802    -0.026932307178     1.007825032230
         H           -2.488948398049     1.259550702802    -1.821602207178     1.007825032230
         H            0.026182501951     1.276423802802    -1.804040207178     1.007825032230
         H            3.453764301951     0.121551602802    -1.198460707178     1.007825032230
         H            1.892054701951     0.056495702802    -2.088958307178     1.007825032230
         H            3.439762601951    -0.160847497198     1.238091492822     1.007825032230
         H            1.871131701951    -0.069787397198     2.113466992822     1.007825032230

  Running in c1 symmetry.

  Rotational constants: A =      0.11619  B =      0.03783  C =      0.02943 [cm^-1]
  Rotational constants: A =   3483.35030  B =   1133.97295  C =    882.38211 [MHz]
  Nuclear repulsion =  406.417019926393948

  Charge       = 1
  Multiplicity = 1
  Electrons    = 64
  Nalpha       = 32
  Nbeta        = 32

  ==> Algorithm <==

  SCF Algorithm Type is DF.
  DIIS enabled.
  MOM disabled.
  Fractional occupation disabled.
  Guess Type is SAD.
  Energy threshold   = 1.00e-08
  Density threshold  = 1.00e-08
  Integral threshold = 0.00e+00

  ==> Primary Basis <==

  Basis Set: STO-3G
    Blend: STO-3G
    Number of shells: 36
    Number of basis function: 54
    Number of Cartesian functions: 54
    Spherical Harmonics?: true
    Max angular momentum: 1

  ==> DFT Potential <==

   => Composite Functional: BLYP <= 

    BLYP GGA Exchange-Correlation Functional

    P.J. Stephens et. al., J. Phys. Chem., 98, 11623-11627, 1994
    B. Miehlich et. al., Chem. Phys. Lett., 157(3), 200-206 1989


    Deriv               =              1
    GGA                 =           TRUE
    Meta                =          FALSE

    Exchange Hybrid     =          FALSE
    MP2 Hybrid          =          FALSE

   => Exchange Functionals <=

    1.0000     XC_GGA_X_B88

   => Correlation Functionals <=

    1.0000     XC_GGA_C_LYP

   => Molecular Quadrature <=

    Radial Scheme          =       TREUTLER
    Pruning Scheme         =           FLAT
    Nuclear Scheme         =       TREUTLER

    BS radius alpha        =              1
    Pruning alpha          =              1
    Radial Points          =             75
    Spherical Points       =            302
    Total Points           =         395279
    Total Blocks           =           2995
    Max Points             =            256
    Max Functions          =             51

   => Loading Basis Set <=

    Name: (STO-3G AUX)
    Role: JKFIT
    Keyword: DF_BASIS_SCF
    atoms 1-7   entry C          line   203 file /home/aaojha/anaconda3/envs/torsiondrive/share/psi4/basis/def2-svp-jkfit.gbs 
    atoms 8-9   entry N          line   263 file /home/aaojha/anaconda3/envs/torsiondrive/share/psi4/basis/def2-svp-jkfit.gbs 
    atoms 10-18 entry H          line    23 file /home/aaojha/anaconda3/envs/torsiondrive/share/psi4/basis/def2-svp-jkfit.gbs 

  ==> Pre-Iterations <==

   -------------------------------------------------------
    Irrep   Nso     Nmo     Nalpha   Nbeta   Ndocc  Nsocc
   -------------------------------------------------------
     A         54      54       0       0       0       0
   -------------------------------------------------------
    Total      54      54      32      32      32       0
   -------------------------------------------------------

  ==> Integral Setup <==

  DFHelper Memory: AOs need 0.024 GiB; user supplied 34.424 GiB. Using in-core AOs.

  ==> MemDFJK: Density-Fitted J/K Matrices <==

    J tasked:                   Yes
    K tasked:                    No
    wK tasked:                   No
    OpenMP threads:               1
    Memory [MiB]:             35249
    Algorithm:                 Core
    Schwarz Cutoff:           1E-12
    Mask sparsity (%):       1.9890
    Fitting Condition:        1E-10

   => Auxiliary Basis Set <=

  Basis Set: (STO-3G AUX)
    Blend: DEF2-SVP-JKFIT
    Number of shells: 279
    Number of basis function: 841
    Number of Cartesian functions: 989
    Spherical Harmonics?: true
    Max angular momentum: 4

  Cached 100.0% of DFT collocation blocks in 0.501 [GiB].

  Minimum eigenvalue in the overlap matrix is 1.8829316877E-01.
  Using Symmetric Orthogonalization.

  SCF Guess: Superposition of Atomic Densities via on-the-fly atomic UHF.

  ==> Iterations <==

                           Total Energy        Delta E     RMS |[F,P]|

   @DF-RKS iter SAD:  -373.14494950435164   -3.73145e+02   0.00000e+00 
   @DF-RKS iter   1:  -376.48743845177546   -3.34249e+00   5.06411e-03 DIIS
   @DF-RKS iter   2:  -376.34643378936482    1.41005e-01   9.85415e-03 DIIS
   @DF-RKS iter   3:  -376.53612625605228   -1.89692e-01   1.68581e-03 DIIS
   @DF-RKS iter   4:  -376.54108956642483   -4.96331e-03   6.85395e-04 DIIS
   @DF-RKS iter   5:  -376.54210751882840   -1.01795e-03   1.56633e-04 DIIS
   @DF-RKS iter   6:  -376.54215524910467   -4.77303e-05   4.33350e-05 DIIS
   @DF-RKS iter   7:  -376.54215860312354   -3.35402e-06   1.20154e-05 DIIS
   @DF-RKS iter   8:  -376.54215886524958   -2.62126e-07   4.28568e-06 DIIS
   @DF-RKS iter   9:  -376.54215890380021   -3.85506e-08   8.37893e-07 DIIS
   @DF-RKS iter  10:  -376.54215890427474   -4.74529e-10   6.88123e-07 DIIS
   @DF-RKS iter  11:  -376.54215890527792   -1.00317e-09   7.23126e-08 DIIS
   @DF-RKS iter  12:  -376.54215890528531   -7.38964e-12   4.22129e-08 DIIS
   @DF-RKS iter  13:  -376.54215890528872   -3.41061e-12   6.63900e-09 DIIS
  Energy and wave function converged.


  ==> Post-Iterations <==

    Orbital Energies [Eh]
    ---------------------

    Doubly Occupied:                                                      

       1A    -14.122441     2A    -14.122349     3A    -10.092010  
       4A     -9.951291     5A     -9.925144     6A     -9.925080  
       7A     -9.913734     8A     -9.910983     9A     -9.910773  
      10A     -1.041976    11A     -0.963118    12A     -0.880572  
      13A     -0.804923    14A     -0.780879    15A     -0.736899  
      16A     -0.677706    17A     -0.666802    18A     -0.635223  
      19A     -0.632073    20A     -0.593779    21A     -0.570260  
      22A     -0.535752    23A     -0.510637    24A     -0.488719  
      25A     -0.485963    26A     -0.480136    27A     -0.417380  
      28A     -0.417228    29A     -0.410153    30A     -0.363072  
      31A     -0.323924    32A     -0.318695  

    Virtual:                                                              

      33A     -0.187124    34A     -0.105621    35A     -0.092685  
      36A      0.012301    37A      0.025268    38A      0.049327  
      39A      0.060812    40A      0.111685    41A      0.123250  
      42A      0.157879    43A      0.187402    44A      0.187785  
      45A      0.218075    46A      0.230061    47A      0.258337  
      48A      0.276258    49A      0.347036    50A      0.350273  
      51A      0.356735    52A      0.372606    53A      0.492176  
      54A      0.534480  

    Final Occupation by Irrep:
              A 
    DOCC [    32 ]

  @DF-RKS Final Energy:  -376.54215890528872

   => Energetics <=

    Nuclear Repulsion Energy =            406.4170199263939480
    One-Electron Energy =               -1303.6917024100791878
    Two-Electron Energy =                 575.0262724976960271
    DFT Exchange-Correlation Energy =     -54.2937489192995244
    Empirical Dispersion Energy =           0.0000000000000000
    VV10 Nonlocal Energy =                  0.0000000000000000
    Total Energy =                       -376.5421589052886588

Computation Completed


Properties will be evaluated at   0.000000,   0.000000,   0.000000 [a0]

Properties computed using the SCF density matrix

  Nuclear Dipole Moment: [e a0]
     X:     1.7665      Y:    -0.0210      Z:     0.0042

  Electronic Dipole Moment: [e a0]
     X:     0.7691      Y:     0.0095      Z:     0.0103

  Dipole Moment: [e a0]
     X:     2.5357      Y:    -0.0114      Z:     0.0145     Total:     2.5357

  Dipole Moment: [D]
     X:     6.4450      Y:    -0.0291      Z:     0.0369     Total:     6.4452


*** tstop() called on aaojha at Fri May 14 10:20:12 2021
Module time:
	user time   =       6.89 seconds =       0.11 minutes
	system time =       0.16 seconds =       0.00 minutes
	total time  =          7 seconds =       0.12 minutes
Total time:
	user time   =       6.89 seconds =       0.11 minutes
	system time =       0.16 seconds =       0.00 minutes
	total time  =          7 seconds =       0.12 minutes

*** tstart() called on aaojha
*** at Fri May 14 10:20:12 2021


         ------------------------------------------------------------
                                   SCF GRAD                          
                          Rob Parrish, Justin Turney,                
                       Andy Simmonett, and Alex Sokolov              
         ------------------------------------------------------------

  ==> Geometry <==

    Molecular point group: c1
    Full point group: C1

    Geometry (in Angstrom), charge = 1, multiplicity = 1:

       Center              X                  Y                   Z               Mass       
    ------------   -----------------  -----------------  -----------------  -----------------
         C            0.185022401951     0.004472402802     0.003839492822    12.000000000000
         C           -0.542053798049    -0.695872297198     1.026872292822    12.000000000000
         C           -1.959421598049    -0.693919897198     1.006570592822    12.000000000000
         C           -2.660586698049     0.007984102802    -0.018441107178    12.000000000000
         C           -1.941679198049     0.707303902802    -1.032943407178    12.000000000000
         C           -0.524206098049     0.704372902802    -1.031911607178    12.000000000000
         C            1.691913401951    -0.004195797198     0.011409492822    12.000000000000
         N            2.402353901951     0.084217502802    -1.171211907178    14.003074004430
         N            2.389313301951    -0.108434697198     1.200534792822    14.003074004430
         H           -0.005296498049    -1.270223097198     1.806813492822     1.007825032230
         H           -2.520299098049    -1.245301097198     1.786226192822     1.007825032230
         H           -3.769144598049     0.009684302802    -0.026932307178     1.007825032230
         H           -2.488948398049     1.259550702802    -1.821602207178     1.007825032230
         H            0.026182501951     1.276423802802    -1.804040207178     1.007825032230
         H            3.453764301951     0.121551602802    -1.198460707178     1.007825032230
         H            1.892054701951     0.056495702802    -2.088958307178     1.007825032230
         H            3.439762601951    -0.160847497198     1.238091492822     1.007825032230
         H            1.871131701951    -0.069787397198     2.113466992822     1.007825032230

  Nuclear repulsion =  406.417019926393948

  ==> Basis Set <==

  Basis Set: STO-3G
    Blend: STO-3G
    Number of shells: 36
    Number of basis function: 54
    Number of Cartesian functions: 54
    Spherical Harmonics?: true
    Max angular momentum: 1

  ==> DFJKGrad: Density-Fitted SCF Gradients <==

    Gradient:                    1
    J tasked:                  Yes
    K tasked:                   No
    wK tasked:                  No
    OpenMP threads:              1
    Integrals threads:           1
    Memory [MiB]:            35762
    Schwarz Cutoff:          0E+00
    Fitting Condition:       1E-10

   => Auxiliary Basis Set <=

  Basis Set: (STO-3G AUX)
    Blend: DEF2-SVP-JKFIT
    Number of shells: 279
    Number of basis function: 841
    Number of Cartesian functions: 989
    Spherical Harmonics?: true
    Max angular momentum: 4

  ==> DFT Potential <==

   => Composite Functional: BLYP <= 

    BLYP GGA Exchange-Correlation Functional

    P.J. Stephens et. al., J. Phys. Chem., 98, 11623-11627, 1994
    B. Miehlich et. al., Chem. Phys. Lett., 157(3), 200-206 1989


    Deriv               =              1
    GGA                 =           TRUE
    Meta                =          FALSE

    Exchange Hybrid     =          FALSE
    MP2 Hybrid          =          FALSE

   => Exchange Functionals <=

    1.0000     XC_GGA_X_B88

   => Correlation Functionals <=

    1.0000     XC_GGA_C_LYP

   => Molecular Quadrature <=

    Radial Scheme          =       TREUTLER
    Pruning Scheme         =           FLAT
    Nuclear Scheme         =       TREUTLER

    BS radius alpha        =              1
    Pruning alpha          =              1
    Radial Points          =             75
    Spherical Points       =            302
    Total Points           =         395279
    Total Blocks           =           2995
    Max Points             =            256
    Max Functions          =             51


  -Total Gradient:
     Atom            X                  Y                   Z
    ------   -----------------  -----------------  -----------------
       1       -0.000032223576     0.000316339313     0.000311113484
       2        0.000010160709    -0.000349287897    -0.000165078353
       3        0.000055777313     0.000058789247    -0.000063237916
       4       -0.000110862254    -0.000007502620     0.000007454776
       5        0.000065510751    -0.000043178151     0.000065508223
       6        0.000003007832    -0.000008877213    -0.000064619498
       7       -0.000052014940     0.000385476968    -0.000067868274
       8        0.000036048718    -0.000364919548    -0.000013940868
       9        0.000040666290     0.000030749161    -0.000056620907
      10        0.000001515005     0.000008604106     0.000013461216
      11        0.000001918308     0.000005179873    -0.000005735581
      12       -0.000007450886    -0.000001269649    -0.000003015890
      13        0.000000334309    -0.000007921041     0.000006213149
      14        0.000004329101     0.000013373868     0.000000875691
      15        0.000000398786    -0.000005845105     0.000005280599
      16       -0.000002816221    -0.000004860891     0.000009329084
      17       -0.000003635995    -0.000015262049     0.000030367218
      18        0.000003815070    -0.000008632954    -0.000009827742


*** tstop() called on aaojha at Fri May 14 10:20:14 2021
Module time:
	user time   =       2.03 seconds =       0.03 minutes
	system time =       0.01 seconds =       0.00 minutes
	total time  =          2 seconds =       0.03 minutes
Total time:
	user time   =       8.92 seconds =       0.15 minutes
	system time =       0.17 seconds =       0.00 minutes
	total time  =          9 seconds =       0.15 minutes

    Psi4 stopped on: Friday, 14 May 2021 10:20AM
    Psi4 wall time for execution: 0:00:09.17

*** Psi4 exiting successfully. Buy a developer a beer!
