
    -----------------------------------------------------------------------
          Psi4: An Open-Source Ab Initio Electronic Structure Package
                               Psi4 1.3.2 release

                         Git: Rev {HEAD} ecbda83 


    R. M. Parrish, L. A. Burns, D. G. A. Smith, A. C. Simmonett,
    A. E. DePrince III, E. G. Hohenstein, U. Bozkaya, A. Yu. Sokolov,
    R. Di Remigio, R. M. Richard, J. F. Gonthier, A. M. James,
    H. R. McAlexander, A. Kumar, M. Saitow, X. Wang, B. P. Pritchard,
    P. Verma, H. F. Schaefer III, K. Patkowski, R. A. King, E. F. Valeev,
    F. A. Evangelista, J. M. Turney, T. D. Crawford, and C. D. Sherrill,
    J. Chem. Theory Comput. 13(7) pp 3185--3197 (2017).
    (doi: 10.1021/acs.jctc.7b00174)


                         Additional Contributions by
    P. Kraus, H. Kruse, M. H. Lechner, M. C. Schieber, R. A. Shaw,
    A. Alenaizan, R. Galvelis, Z. L. Glick, S. Lehtola, and J. P. Misiewicz

    -----------------------------------------------------------------------


    Psi4 started on: Friday, 14 May 2021 09:40AM

    Process ID: 4119
    Host:       aaojha
    PSIDATADIR: /home/aaojha/anaconda3/envs/torsiondrive/share/psi4
    Memory:     500.0 MiB
    Threads:    1
    
  ==> Input File <==

--------------------------------------------------------------------------
memory 50 GB
molecule {
1 1
C           0.1614175    -0.0132341    -0.0251808
C          -0.5580310    -1.2016396     0.3361791
C          -1.9762358    -1.1830314     0.3498611
C          -2.6814308     0.0070312     0.0030463
C          -1.9656524     1.1898226    -0.3480673
C          -0.5474142     1.1921507    -0.3491898
C           1.6710500    -0.0122757     0.0072305
N           2.3754922    -1.0730598    -0.5279835
N           2.3586671     1.0715467     0.5173981
H          -0.0119623    -2.1193134     0.6298583
H          -2.5340735    -2.0952554     0.6381296
H          -3.7898540     0.0140585     0.0099825
H          -2.5158427     2.1112827    -0.6213406
H           0.0059057     2.1062133    -0.6403126
H           3.4242675    -1.1507507    -0.4720347
H           1.8504002    -1.8693412    -0.9700160
H           3.4089863     1.1431247     0.4927460
H           1.8253831     1.8532595     0.9750945
}
set {
basis STO-3G
}
gradient('BLYP')
--------------------------------------------------------------------------

  Memory set to  46.566 GiB by Python driver.
gradient() will perform analytic gradient computation.

*** tstart() called on aaojha
*** at Fri May 14 09:40:54 2021

   => Loading Basis Set <=

    Name: STO-3G
    Role: ORBITAL
    Keyword: BASIS
    atoms 1-7   entry C          line    61 file /home/aaojha/anaconda3/envs/torsiondrive/share/psi4/basis/sto-3g.gbs 
    atoms 8-9   entry N          line    71 file /home/aaojha/anaconda3/envs/torsiondrive/share/psi4/basis/sto-3g.gbs 
    atoms 10-18 entry H          line    19 file /home/aaojha/anaconda3/envs/torsiondrive/share/psi4/basis/sto-3g.gbs 


         ---------------------------------------------------------
                                   SCF
               by Justin Turney, Rob Parrish, Andy Simmonett
                          and Daniel G. A. Smith
                              RKS Reference
                        1 Threads,  47683 MiB Core
         ---------------------------------------------------------

  ==> Geometry <==

    Molecular point group: c1
    Full point group: C1

    Geometry (in Angstrom), charge = 1, multiplicity = 1:

       Center              X                  Y                   Z               Mass       
    ------------   -----------------  -----------------  -----------------  -----------------
         C            0.184432294053    -0.010904349137    -0.021718177632    12.000000000000
         C           -0.535016205947    -1.199309849137     0.339641722368    12.000000000000
         C           -1.953221005947    -1.180701649137     0.353323722368    12.000000000000
         C           -2.658416005947     0.009360950863     0.006508922368    12.000000000000
         C           -1.942637605947     1.192152350863    -0.344604677632    12.000000000000
         C           -0.524399405947     1.194480450863    -0.345727177632    12.000000000000
         C            1.694064794053    -0.009945949137     0.010693122368    12.000000000000
         N            2.398506994053    -1.070730049137    -0.524520877632    14.003074004430
         N            2.381681894053     1.073876450863     0.520860722368    14.003074004430
         H            0.011052494053    -2.116983649137     0.633320922368     1.007825032230
         H           -2.511058705947    -2.092925649137     0.641592222368     1.007825032230
         H           -3.766839205947     0.016388250863     0.013445122368     1.007825032230
         H           -2.492827905947     2.113612450863    -0.617877977632     1.007825032230
         H            0.028920494053     2.108543050863    -0.636849977632     1.007825032230
         H            3.447282294053    -1.148420949137    -0.468572077632     1.007825032230
         H            1.873414994053    -1.867011449137    -0.966553377632     1.007825032230
         H            3.432001094053     1.145454450863     0.496208622368     1.007825032230
         H            1.848397894053     1.855589250863     0.978557122368     1.007825032230

  Running in c1 symmetry.

  Rotational constants: A =      0.11601  B =      0.03726  C =      0.02993 [cm^-1]
  Rotational constants: A =   3477.99851  B =   1117.15070  C =    897.16039 [MHz]
  Nuclear repulsion =  406.256048392121784

  Charge       = 1
  Multiplicity = 1
  Electrons    = 64
  Nalpha       = 32
  Nbeta        = 32

  ==> Algorithm <==

  SCF Algorithm Type is DF.
  DIIS enabled.
  MOM disabled.
  Fractional occupation disabled.
  Guess Type is SAD.
  Energy threshold   = 1.00e-08
  Density threshold  = 1.00e-08
  Integral threshold = 0.00e+00

  ==> Primary Basis <==

  Basis Set: STO-3G
    Blend: STO-3G
    Number of shells: 36
    Number of basis function: 54
    Number of Cartesian functions: 54
    Spherical Harmonics?: true
    Max angular momentum: 1

  ==> DFT Potential <==

   => Composite Functional: BLYP <= 

    BLYP GGA Exchange-Correlation Functional

    P.J. Stephens et. al., J. Phys. Chem., 98, 11623-11627, 1994
    B. Miehlich et. al., Chem. Phys. Lett., 157(3), 200-206 1989


    Deriv               =              1
    GGA                 =           TRUE
    Meta                =          FALSE

    Exchange Hybrid     =          FALSE
    MP2 Hybrid          =          FALSE

   => Exchange Functionals <=

    1.0000     XC_GGA_X_B88

   => Correlation Functionals <=

    1.0000     XC_GGA_C_LYP

   => Molecular Quadrature <=

    Radial Scheme          =       TREUTLER
    Pruning Scheme         =           FLAT
    Nuclear Scheme         =       TREUTLER

    BS radius alpha        =              1
    Pruning alpha          =              1
    Radial Points          =             75
    Spherical Points       =            302
    Total Points           =         395439
    Total Blocks           =           2972
    Max Points             =            256
    Max Functions          =             51

   => Loading Basis Set <=

    Name: (STO-3G AUX)
    Role: JKFIT
    Keyword: DF_BASIS_SCF
    atoms 1-7   entry C          line   203 file /home/aaojha/anaconda3/envs/torsiondrive/share/psi4/basis/def2-svp-jkfit.gbs 
    atoms 8-9   entry N          line   263 file /home/aaojha/anaconda3/envs/torsiondrive/share/psi4/basis/def2-svp-jkfit.gbs 
    atoms 10-18 entry H          line    23 file /home/aaojha/anaconda3/envs/torsiondrive/share/psi4/basis/def2-svp-jkfit.gbs 

  ==> Pre-Iterations <==

   -------------------------------------------------------
    Irrep   Nso     Nmo     Nalpha   Nbeta   Ndocc  Nsocc
   -------------------------------------------------------
     A         54      54       0       0       0       0
   -------------------------------------------------------
    Total      54      54      32      32      32       0
   -------------------------------------------------------

  ==> Integral Setup <==

  DFHelper Memory: AOs need 0.024 GiB; user supplied 34.424 GiB. Using in-core AOs.

  ==> MemDFJK: Density-Fitted J/K Matrices <==

    J tasked:                   Yes
    K tasked:                    No
    wK tasked:                   No
    OpenMP threads:               1
    Memory [MiB]:             35249
    Algorithm:                 Core
    Schwarz Cutoff:           1E-12
    Mask sparsity (%):       1.8519
    Fitting Condition:        1E-10

   => Auxiliary Basis Set <=

  Basis Set: (STO-3G AUX)
    Blend: DEF2-SVP-JKFIT
    Number of shells: 279
    Number of basis function: 841
    Number of Cartesian functions: 989
    Spherical Harmonics?: true
    Max angular momentum: 4

  Cached 100.0% of DFT collocation blocks in 0.501 [GiB].

  Minimum eigenvalue in the overlap matrix is 1.8814566887E-01.
  Using Symmetric Orthogonalization.

  SCF Guess: Superposition of Atomic Densities via on-the-fly atomic UHF.

  ==> Iterations <==

                           Total Energy        Delta E     RMS |[F,P]|

   @DF-RKS iter SAD:  -373.14454834484468   -3.73145e+02   0.00000e+00 
   @DF-RKS iter   1:  -376.48588388156293   -3.34134e+00   5.08564e-03 DIIS
   @DF-RKS iter   2:  -376.34239999608371    1.43484e-01   9.96123e-03 DIIS
   @DF-RKS iter   3:  -376.53549405611886   -1.93094e-01   1.63350e-03 DIIS
   @DF-RKS iter   4:  -376.54008288467196   -4.58883e-03   6.82785e-04 DIIS
   @DF-RKS iter   5:  -376.54108298135975   -1.00010e-03   1.60671e-04 DIIS
   @DF-RKS iter   6:  -376.54113342697826   -5.04456e-05   4.25629e-05 DIIS
   @DF-RKS iter   7:  -376.54113662107909   -3.19410e-06   1.30636e-05 DIIS
   @DF-RKS iter   8:  -376.54113692044257   -2.99363e-07   4.38580e-06 DIIS
   @DF-RKS iter   9:  -376.54113696268769   -4.22451e-08   5.11651e-07 DIIS
   @DF-RKS iter  10:  -376.54113696301124   -3.23553e-10   3.68249e-07 DIIS
   @DF-RKS iter  11:  -376.54113696326954   -2.58296e-10   9.89046e-08 DIIS
   @DF-RKS iter  12:  -376.54113696328432   -1.47793e-11   4.91879e-08 DIIS
   @DF-RKS iter  13:  -376.54113696328898   -4.66116e-12   9.22642e-09 DIIS
  Energy and wave function converged.


  ==> Post-Iterations <==

    Orbital Energies [Eh]
    ---------------------

    Doubly Occupied:                                                      

       1A    -14.125518     2A    -14.125413     3A    -10.093504  
       4A     -9.948151     5A     -9.922215     6A     -9.921875  
       7A     -9.910609     8A     -9.908406     9A     -9.908152  
      10A     -1.043652    11A     -0.965442    12A     -0.878765  
      13A     -0.803586    14A     -0.778346    15A     -0.736574  
      16A     -0.678173    17A     -0.664818    18A     -0.638735  
      19A     -0.629856    20A     -0.594831    21A     -0.569601  
      22A     -0.532564    23A     -0.513332    24A     -0.484332  
      25A     -0.484118    26A     -0.476524    27A     -0.416826  
      28A     -0.414619    29A     -0.407670    30A     -0.365457  
      31A     -0.322005    32A     -0.316301  

    Virtual:                                                              

      33A     -0.184810    34A     -0.103505    35A     -0.099112  
      36A      0.011938    37A      0.023323    38A      0.052194  
      39A      0.057379    40A      0.115034    41A      0.121639  
      42A      0.161396    43A      0.185843    44A      0.191415  
      45A      0.224347    46A      0.232581    47A      0.257154  
      48A      0.279114    49A      0.348745    50A      0.349323  
      51A      0.358140    52A      0.371344    53A      0.493644  
      54A      0.536994  

    Final Occupation by Irrep:
              A 
    DOCC [    32 ]

  @DF-RKS Final Energy:  -376.54113696328898

   => Energetics <=

    Nuclear Repulsion Energy =            406.2560483921217838
    One-Electron Energy =               -1303.4272140568316445
    Two-Electron Energy =                 574.9235148278453380
    DFT Exchange-Correlation Energy =     -54.2934861264244333
    Empirical Dispersion Energy =           0.0000000000000000
    VV10 Nonlocal Energy =                  0.0000000000000000
    Total Energy =                       -376.5411369632889773

Computation Completed


Properties will be evaluated at   0.000000,   0.000000,   0.000000 [a0]

Properties computed using the SCF density matrix

  Nuclear Dipole Moment: [e a0]
     X:     1.7395      Y:     0.0133      Z:     0.0687

  Electronic Dipole Moment: [e a0]
     X:     0.8705      Y:    -0.0284      Z:    -0.0190

  Dipole Moment: [e a0]
     X:     2.6100      Y:    -0.0151      Z:     0.0497     Total:     2.6106

  Dipole Moment: [D]
     X:     6.6341      Y:    -0.0383      Z:     0.1263     Total:     6.6354


*** tstop() called on aaojha at Fri May 14 09:41:01 2021
Module time:
	user time   =       6.88 seconds =       0.11 minutes
	system time =       0.18 seconds =       0.00 minutes
	total time  =          7 seconds =       0.12 minutes
Total time:
	user time   =       6.88 seconds =       0.11 minutes
	system time =       0.18 seconds =       0.00 minutes
	total time  =          7 seconds =       0.12 minutes

*** tstart() called on aaojha
*** at Fri May 14 09:41:01 2021


         ------------------------------------------------------------
                                   SCF GRAD                          
                          Rob Parrish, Justin Turney,                
                       Andy Simmonett, and Alex Sokolov              
         ------------------------------------------------------------

  ==> Geometry <==

    Molecular point group: c1
    Full point group: C1

    Geometry (in Angstrom), charge = 1, multiplicity = 1:

       Center              X                  Y                   Z               Mass       
    ------------   -----------------  -----------------  -----------------  -----------------
         C            0.184432294053    -0.010904349137    -0.021718177632    12.000000000000
         C           -0.535016205947    -1.199309849137     0.339641722368    12.000000000000
         C           -1.953221005947    -1.180701649137     0.353323722368    12.000000000000
         C           -2.658416005947     0.009360950863     0.006508922368    12.000000000000
         C           -1.942637605947     1.192152350863    -0.344604677632    12.000000000000
         C           -0.524399405947     1.194480450863    -0.345727177632    12.000000000000
         C            1.694064794053    -0.009945949137     0.010693122368    12.000000000000
         N            2.398506994053    -1.070730049137    -0.524520877632    14.003074004430
         N            2.381681894053     1.073876450863     0.520860722368    14.003074004430
         H            0.011052494053    -2.116983649137     0.633320922368     1.007825032230
         H           -2.511058705947    -2.092925649137     0.641592222368     1.007825032230
         H           -3.766839205947     0.016388250863     0.013445122368     1.007825032230
         H           -2.492827905947     2.113612450863    -0.617877977632     1.007825032230
         H            0.028920494053     2.108543050863    -0.636849977632     1.007825032230
         H            3.447282294053    -1.148420949137    -0.468572077632     1.007825032230
         H            1.873414994053    -1.867011449137    -0.966553377632     1.007825032230
         H            3.432001094053     1.145454450863     0.496208622368     1.007825032230
         H            1.848397894053     1.855589250863     0.978557122368     1.007825032230

  Nuclear repulsion =  406.256048392121784

  ==> Basis Set <==

  Basis Set: STO-3G
    Blend: STO-3G
    Number of shells: 36
    Number of basis function: 54
    Number of Cartesian functions: 54
    Spherical Harmonics?: true
    Max angular momentum: 1

  ==> DFJKGrad: Density-Fitted SCF Gradients <==

    Gradient:                    1
    J tasked:                  Yes
    K tasked:                   No
    wK tasked:                  No
    OpenMP threads:              1
    Integrals threads:           1
    Memory [MiB]:            35762
    Schwarz Cutoff:          0E+00
    Fitting Condition:       1E-10

   => Auxiliary Basis Set <=

  Basis Set: (STO-3G AUX)
    Blend: DEF2-SVP-JKFIT
    Number of shells: 279
    Number of basis function: 841
    Number of Cartesian functions: 989
    Spherical Harmonics?: true
    Max angular momentum: 4

  ==> DFT Potential <==

   => Composite Functional: BLYP <= 

    BLYP GGA Exchange-Correlation Functional

    P.J. Stephens et. al., J. Phys. Chem., 98, 11623-11627, 1994
    B. Miehlich et. al., Chem. Phys. Lett., 157(3), 200-206 1989


    Deriv               =              1
    GGA                 =           TRUE
    Meta                =          FALSE

    Exchange Hybrid     =          FALSE
    MP2 Hybrid          =          FALSE

   => Exchange Functionals <=

    1.0000     XC_GGA_X_B88

   => Correlation Functionals <=

    1.0000     XC_GGA_C_LYP

   => Molecular Quadrature <=

    Radial Scheme          =       TREUTLER
    Pruning Scheme         =           FLAT
    Nuclear Scheme         =       TREUTLER

    BS radius alpha        =              1
    Pruning alpha          =              1
    Radial Points          =             75
    Spherical Points       =            302
    Total Points           =         395439
    Total Blocks           =           2972
    Max Points             =            256
    Max Functions          =             51


  -Total Gradient:
     Atom            X                  Y                   Z
    ------   -----------------  -----------------  -----------------
       1        0.000687682608    -0.000930467943    -0.005301723025
       2       -0.000207292167     0.001038850187     0.002619484193
       3        0.000186564165     0.000267662660    -0.000046297378
       4       -0.000639741376    -0.000010575280    -0.000010673346
       5        0.000173138985    -0.000233433511     0.000099814308
       6       -0.000115845988    -0.000227435594     0.000018622672
       7       -0.000006806524    -0.001325539481     0.005137481046
       8       -0.000107442478     0.001369729081    -0.002811757302
       9        0.000120879398     0.000208501037     0.000437695778
      10        0.000047239662     0.000049620018    -0.000009921433
      11       -0.000037923582     0.000050238660    -0.000021823428
      12       -0.000045906544     0.000003433936    -0.000002905815
      13       -0.000033175247    -0.000046383904     0.000012811376
      14        0.000005285958    -0.000039223777    -0.000004717529
      15       -0.000048869365    -0.000131787258    -0.000031957994
      16        0.000033000499    -0.000066283804     0.000084514429
      17       -0.000012007652    -0.000007206486    -0.000122504612
      18        0.000033014114     0.000035678484    -0.000048970180


*** tstop() called on aaojha at Fri May 14 09:41:03 2021
Module time:
	user time   =       2.02 seconds =       0.03 minutes
	system time =       0.01 seconds =       0.00 minutes
	total time  =          2 seconds =       0.03 minutes
Total time:
	user time   =       8.90 seconds =       0.15 minutes
	system time =       0.19 seconds =       0.00 minutes
	total time  =          9 seconds =       0.15 minutes

    Psi4 stopped on: Friday, 14 May 2021 09:41AM
    Psi4 wall time for execution: 0:00:09.14

*** Psi4 exiting successfully. Buy a developer a beer!
