 Entering Gaussian System, Link 0=g16
 Initial command:
 /software/repo/qm/gaussian/16.B01-sse4/l1.exe "/home/aaojha/Downloads/qmmmrebind/Gau-23249.inp" -scrdir="/home/aaojha/Downloads/qmmmrebind/"
 Entering Link 1 = /software/repo/qm/gaussian/16.B01-sse4/l1.exe PID=     23251.
  
 Copyright (c) 1988-2017, Gaussian, Inc.  All Rights Reserved.
  
 This is part of the Gaussian(R) 16 program.  It is based on
 the Gaussian(R) 09 system (copyright 2009, Gaussian, Inc.),
 the Gaussian(R) 03 system (copyright 2003, Gaussian, Inc.),
 the Gaussian(R) 98 system (copyright 1998, Gaussian, Inc.),
 the Gaussian(R) 94 system (copyright 1995, Gaussian, Inc.),
 the Gaussian 92(TM) system (copyright 1992, Gaussian, Inc.),
 the Gaussian 90(TM) system (copyright 1990, Gaussian, Inc.),
 the Gaussian 88(TM) system (copyright 1988, Gaussian, Inc.),
 the Gaussian 86(TM) system (copyright 1986, Carnegie Mellon
 University), and the Gaussian 82(TM) system (copyright 1983,
 Carnegie Mellon University). Gaussian is a federally registered
 trademark of Gaussian, Inc.
  
 This software contains proprietary and confidential information,
 including trade secrets, belonging to Gaussian, Inc.
  
 This software is provided under written license and may be
 used, copied, transmitted, or stored only in accord with that
 written license.
  
 The following legend is applicable only to US Government
 contracts under FAR:
  
                    RESTRICTED RIGHTS LEGEND
  
 Use, reproduction and disclosure by the US Government is
 subject to restrictions as set forth in subparagraphs (a)
 and (c) of the Commercial Computer Software - Restricted
 Rights clause in FAR 52.227-19.
  
 Gaussian, Inc.
 340 Quinnipiac St., Bldg. 40, Wallingford CT 06492
  
  
 ---------------------------------------------------------------
 Warning -- This program may not be used in any manner that
 competes with the business of Gaussian, Inc. or will provide
 assistance to any competitor of Gaussian, Inc.  The licensee
 of this program is prohibited from giving any competitor of
 Gaussian, Inc. access to this program.  By using this program,
 the user acknowledges that Gaussian, Inc. is engaged in the
 business of creating and licensing software in the field of
 computational chemistry and represents and warrants to the
 licensee that it is not a competitor of Gaussian, Inc. and that
 it will not use this program in any manner prohibited above.
 ---------------------------------------------------------------
  

 Cite this work as:
 Gaussian 16, Revision B.01,
 M. J. Frisch, G. W. Trucks, H. B. Schlegel, G. E. Scuseria, 
 M. A. Robb, J. R. Cheeseman, G. Scalmani, V. Barone, 
 G. A. Petersson, H. Nakatsuji, X. Li, M. Caricato, A. V. Marenich, 
 J. Bloino, B. G. Janesko, R. Gomperts, B. Mennucci, H. P. Hratchian, 
 J. V. Ortiz, A. F. Izmaylov, J. L. Sonnenberg, D. Williams-Young, 
 F. Ding, F. Lipparini, F. Egidi, J. Goings, B. Peng, A. Petrone, 
 T. Henderson, D. Ranasinghe, V. G. Zakrzewski, J. Gao, N. Rega, 
 G. Zheng, W. Liang, M. Hada, M. Ehara, K. Toyota, R. Fukuda, 
 J. Hasegawa, M. Ishida, T. Nakajima, Y. Honda, O. Kitao, H. Nakai, 
 T. Vreven, K. Throssell, J. A. Montgomery, Jr., J. E. Peralta, 
 F. Ogliaro, M. J. Bearpark, J. J. Heyd, E. N. Brothers, K. N. Kudin, 
 V. N. Staroverov, T. A. Keith, R. Kobayashi, J. Normand, 
 K. Raghavachari, A. P. Rendell, J. C. Burant, S. S. Iyengar, 
 J. Tomasi, M. Cossi, J. M. Millam, M. Klene, C. Adamo, R. Cammi, 
 J. W. Ochterski, R. L. Martin, K. Morokuma, O. Farkas, 
 J. B. Foresman, and D. J. Fox, Gaussian, Inc., Wallingford CT, 2016.
 
 ******************************************
 Gaussian 16:  ES64L-G16RevB.01 20-Dec-2017
                 8-May-2021 
 ******************************************
 %Chk = host_qm.chk
 %Mem = 50GB
 %NProcShared = 12
 Will use up to   12 processors via shared memory.
 ----------------------------------------------------------------------
 # B3LYP 6-31G OPT FREQ Integral=(Grid=UltraFine) Pop(MK,ReadRadii) IOp
 (6/33=2,6/42=6)
 ----------------------------------------------------------------------
 1/18=20,19=15,26=4,38=1/1,3;
 2/9=110,12=2,17=6,18=5,40=1/2;
 3/5=1,6=6,11=2,25=1,30=1,71=1,74=-5,75=-5/1,2,3;
 4//1;
 5/5=2,38=5/2;
 6/7=2,8=2,9=2,10=2,15=8,20=101,28=1,33=2,42=6/1,2;
 7//1,2,3,16;
 1/18=20,19=15,26=4/3(2);
 2/9=110/2;
 99//99;
 2/9=110/2;
 3/5=1,6=6,11=2,25=1,30=1,71=1,74=-5,75=-5/1,2,3;
 4/5=5,16=3,69=1/1;
 5/5=2,38=5/2;
 7//1,2,3,16;
 1/18=20,19=15,26=4/3(-5);
 2/9=110/2;
 6/7=2,8=2,9=2,10=2,15=8,19=2,20=101,28=1,33=2,42=6/1,2;
 99/9=1/99;
 ---------------------------
 host_qm gaussian input file
 ---------------------------
 Symbolic Z-matrix:
 Charge =  0 Multiplicity = 1
 N                     30.112    28.08     27.542 
 H                     29.523    27.423    28.032 
 C                     29.462    29.307    27.051 
 H                     29.271    29.095    25.999 
 C                     28.022    29.456    27.625 
 H                     28.034    29.412    28.715 
 C                     27.466    30.845    27.115 
 H                     28.051    31.717    27.406 
 H                     27.311    30.857    26.036 
 H                     26.481    31.039    27.54 
 C                     27.082    28.377    27.181 
 H                     26.854    28.326    26.117 
 H                     27.591    27.462    27.483 
 H                     26.135    28.306    27.716 
 C                     30.285    30.577    27.286 
 O                     30.477    30.979    28.434 
 N                     30.74     31.21     26.181 
 H                     30.598    30.804    25.267 
 C                     31.581    32.434    26.266 
 H                     31.689    32.768    27.298 
 C                     32.887    32.014    25.673 
 H                     33.227    31.104    26.168 
 H                     32.62     31.813    24.636 
 O                     33.847    33.012    25.757 
 H                     34.198    33.004    26.651 
 C                     30.913    33.628    25.648 
 O                     29.672    33.766    25.708 
 

 GradGradGradGradGradGradGradGradGradGradGradGradGradGradGradGradGradGrad
 Berny optimization.
 Initialization pass.
                           ----------------------------
                           !    Initial Parameters    !
                           ! (Angstroms and Degrees)  !
 --------------------------                            --------------------------
 ! Name  Definition              Value          Derivative Info.                !
 --------------------------------------------------------------------------------
 ! R1    R(1,2)                  1.0093         estimate D2E/DX2                !
 ! R2    R(1,3)                  1.4728         estimate D2E/DX2                !
 ! R3    R(3,4)                  1.09           estimate D2E/DX2                !
 ! R4    R(3,5)                  1.5573         estimate D2E/DX2                !
 ! R5    R(3,15)                 1.5315         estimate D2E/DX2                !
 ! R6    R(5,6)                  1.091          estimate D2E/DX2                !
 ! R7    R(5,7)                  1.5807         estimate D2E/DX2                !
 ! R8    R(5,11)                 1.4983         estimate D2E/DX2                !
 ! R9    R(7,8)                  1.0896         estimate D2E/DX2                !
 ! R10   R(7,9)                  1.0901         estimate D2E/DX2                !
 ! R11   R(7,10)                 1.0902         estimate D2E/DX2                !
 ! R12   R(11,12)                1.0893         estimate D2E/DX2                !
 ! R13   R(11,13)                1.0897         estimate D2E/DX2                !
 ! R14   R(11,14)                1.09           estimate D2E/DX2                !
 ! R15   R(15,16)                1.2314         estimate D2E/DX2                !
 ! R16   R(15,17)                1.3523         estimate D2E/DX2                !
 ! R17   R(17,18)                1.0101         estimate D2E/DX2                !
 ! R18   R(17,19)                1.4875         estimate D2E/DX2                !
 ! R19   R(19,20)                1.0901         estimate D2E/DX2                !
 ! R20   R(19,21)                1.4946         estimate D2E/DX2                !
 ! R21   R(19,26)                1.5013         estimate D2E/DX2                !
 ! R22   R(21,22)                1.0903         estimate D2E/DX2                !
 ! R23   R(21,23)                1.0895         estimate D2E/DX2                !
 ! R24   R(21,24)                1.3873         estimate D2E/DX2                !
 ! R25   R(24,25)                0.9605         estimate D2E/DX2                !
 ! R26   R(26,27)                1.2501         estimate D2E/DX2                !
 ! A1    A(2,1,3)              116.5266         estimate D2E/DX2                !
 ! A2    A(1,3,4)              103.7128         estimate D2E/DX2                !
 ! A3    A(1,3,5)              111.4027         estimate D2E/DX2                !
 ! A4    A(1,3,15)             113.7371         estimate D2E/DX2                !
 ! A5    A(4,3,5)              102.2577         estimate D2E/DX2                !
 ! A6    A(4,3,15)             113.7999         estimate D2E/DX2                !
 ! A7    A(5,3,15)             111.1617         estimate D2E/DX2                !
 ! A8    A(3,5,6)              110.7461         estimate D2E/DX2                !
 ! A9    A(3,5,7)              106.8819         estimate D2E/DX2                !
 ! A10   A(3,5,11)             113.702          estimate D2E/DX2                !
 ! A11   A(6,5,7)              111.203          estimate D2E/DX2                !
 ! A12   A(6,5,11)             105.8982         estimate D2E/DX2                !
 ! A13   A(7,5,11)             108.4529         estimate D2E/DX2                !
 ! A14   A(5,7,8)              115.3543         estimate D2E/DX2                !
 ! A15   A(5,7,9)              112.2738         estimate D2E/DX2                !
 ! A16   A(5,7,10)             110.3897         estimate D2E/DX2                !
 ! A17   A(8,7,9)              109.3817         estimate D2E/DX2                !
 ! A18   A(8,7,10)             103.8015         estimate D2E/DX2                !
 ! A19   A(9,7,10)             104.7994         estimate D2E/DX2                !
 ! A20   A(5,11,12)            117.03           estimate D2E/DX2                !
 ! A21   A(5,11,13)            103.2682         estimate D2E/DX2                !
 ! A22   A(5,11,14)            116.5211         estimate D2E/DX2                !
 ! A23   A(12,11,13)           109.2163         estimate D2E/DX2                !
 ! A24   A(12,11,14)           107.1286         estimate D2E/DX2                !
 ! A25   A(13,11,14)           102.4211         estimate D2E/DX2                !
 ! A26   A(3,15,16)            119.8384         estimate D2E/DX2                !
 ! A27   A(3,15,17)            116.3333         estimate D2E/DX2                !
 ! A28   A(16,15,17)           123.8143         estimate D2E/DX2                !
 ! A29   A(15,17,18)           120.2593         estimate D2E/DX2                !
 ! A30   A(15,17,19)           121.9178         estimate D2E/DX2                !
 ! A31   A(18,17,19)           117.51           estimate D2E/DX2                !
 ! A32   A(17,19,20)           111.2378         estimate D2E/DX2                !
 ! A33   A(17,19,21)           103.8946         estimate D2E/DX2                !
 ! A34   A(17,19,26)           112.2933         estimate D2E/DX2                !
 ! A35   A(20,19,21)           112.0347         estimate D2E/DX2                !
 ! A36   A(20,19,26)           100.9597         estimate D2E/DX2                !
 ! A37   A(21,19,26)           116.6792         estimate D2E/DX2                !
 ! A38   A(19,21,22)           109.0816         estimate D2E/DX2                !
 ! A39   A(19,21,23)           102.4359         estimate D2E/DX2                !
 ! A40   A(19,21,24)           112.2407         estimate D2E/DX2                !
 ! A41   A(22,21,23)           110.7668         estimate D2E/DX2                !
 ! A42   A(22,21,24)           110.9246         estimate D2E/DX2                !
 ! A43   A(23,21,24)           111.0953         estimate D2E/DX2                !
 ! A44   A(21,24,25)           107.6528         estimate D2E/DX2                !
 ! A45   A(19,26,27)           120.6481         estimate D2E/DX2                !
 ! D1    D(2,1,3,4)            -98.8562         estimate D2E/DX2                !
 ! D2    D(2,1,3,5)             10.4346         estimate D2E/DX2                !
 ! D3    D(2,1,3,15)           137.0137         estimate D2E/DX2                !
 ! D4    D(1,3,5,6)             54.8863         estimate D2E/DX2                !
 ! D5    D(1,3,5,7)            176.1597         estimate D2E/DX2                !
 ! D6    D(1,3,5,11)           -64.2047         estimate D2E/DX2                !
 ! D7    D(4,3,5,6)            165.1114         estimate D2E/DX2                !
 ! D8    D(4,3,5,7)            -73.6153         estimate D2E/DX2                !
 ! D9    D(4,3,5,11)            46.0203         estimate D2E/DX2                !
 ! D10   D(15,3,5,6)           -73.0908         estimate D2E/DX2                !
 ! D11   D(15,3,5,7)            48.1825         estimate D2E/DX2                !
 ! D12   D(15,3,5,11)          167.8181         estimate D2E/DX2                !
 ! D13   D(1,3,15,16)          -67.1829         estimate D2E/DX2                !
 ! D14   D(1,3,15,17)          114.125          estimate D2E/DX2                !
 ! D15   D(4,3,15,16)          174.3288         estimate D2E/DX2                !
 ! D16   D(4,3,15,17)           -4.3633         estimate D2E/DX2                !
 ! D17   D(5,3,15,16)           59.5224         estimate D2E/DX2                !
 ! D18   D(5,3,15,17)         -119.1698         estimate D2E/DX2                !
 ! D19   D(3,5,7,8)            -58.9681         estimate D2E/DX2                !
 ! D20   D(3,5,7,9)             67.2553         estimate D2E/DX2                !
 ! D21   D(3,5,7,10)          -176.2109         estimate D2E/DX2                !
 ! D22   D(6,5,7,8)             62.0153         estimate D2E/DX2                !
 ! D23   D(6,5,7,9)           -171.7614         estimate D2E/DX2                !
 ! D24   D(6,5,7,10)           -55.2275         estimate D2E/DX2                !
 ! D25   D(11,5,7,8)           178.0675         estimate D2E/DX2                !
 ! D26   D(11,5,7,9)           -55.7091         estimate D2E/DX2                !
 ! D27   D(11,5,7,10)           60.8247         estimate D2E/DX2                !
 ! D28   D(3,5,11,12)          -64.3056         estimate D2E/DX2                !
 ! D29   D(3,5,11,13)           55.69           estimate D2E/DX2                !
 ! D30   D(3,5,11,14)          167.0767         estimate D2E/DX2                !
 ! D31   D(6,5,11,12)          173.8722         estimate D2E/DX2                !
 ! D32   D(6,5,11,13)          -66.1322         estimate D2E/DX2                !
 ! D33   D(6,5,11,14)           45.2545         estimate D2E/DX2                !
 ! D34   D(7,5,11,12)           54.4342         estimate D2E/DX2                !
 ! D35   D(7,5,11,13)          174.4298         estimate D2E/DX2                !
 ! D36   D(7,5,11,14)          -74.1835         estimate D2E/DX2                !
 ! D37   D(3,15,17,18)          -4.9676         estimate D2E/DX2                !
 ! D38   D(3,15,17,19)        -178.3824         estimate D2E/DX2                !
 ! D39   D(16,15,17,18)        176.3979         estimate D2E/DX2                !
 ! D40   D(16,15,17,19)          2.9831         estimate D2E/DX2                !
 ! D41   D(15,17,19,20)         -4.8299         estimate D2E/DX2                !
 ! D42   D(15,17,19,21)        115.8854         estimate D2E/DX2                !
 ! D43   D(15,17,19,26)       -117.1504         estimate D2E/DX2                !
 ! D44   D(18,17,19,20)       -178.4176         estimate D2E/DX2                !
 ! D45   D(18,17,19,21)        -57.7022         estimate D2E/DX2                !
 ! D46   D(18,17,19,26)         69.262          estimate D2E/DX2                !
 ! D47   D(17,19,21,22)        -52.14           estimate D2E/DX2                !
 ! D48   D(17,19,21,23)         65.2779         estimate D2E/DX2                !
 ! D49   D(17,19,21,24)       -175.4888         estimate D2E/DX2                !
 ! D50   D(20,19,21,22)         68.0376         estimate D2E/DX2                !
 ! D51   D(20,19,21,23)       -174.5445         estimate D2E/DX2                !
 ! D52   D(20,19,21,24)        -55.3112         estimate D2E/DX2                !
 ! D53   D(26,19,21,22)       -176.31           estimate D2E/DX2                !
 ! D54   D(26,19,21,23)        -58.8921         estimate D2E/DX2                !
 ! D55   D(26,19,21,24)         60.3413         estimate D2E/DX2                !
 ! D56   D(17,19,26,27)         33.8528         estimate D2E/DX2                !
 ! D57   D(20,19,26,27)        -84.7132         estimate D2E/DX2                !
 ! D58   D(21,19,26,27)        153.62           estimate D2E/DX2                !
 ! D59   D(19,21,24,25)         79.3892         estimate D2E/DX2                !
 ! D60   D(22,21,24,25)        -42.9196         estimate D2E/DX2                !
 ! D61   D(23,21,24,25)       -166.5869         estimate D2E/DX2                !
 --------------------------------------------------------------------------------
 Trust Radius=3.00D-01 FncErr=1.00D-07 GrdErr=1.00D-06 EigMax=2.50D+02 EigMin=1.00D-04
 Number of steps in this run=    142 maximum allowed number of steps=    162.
 GradGradGradGradGradGradGradGradGradGradGradGradGradGradGradGradGradGrad

                          Input orientation:                          
 ---------------------------------------------------------------------
 Center     Atomic      Atomic             Coordinates (Angstroms)
 Number     Number       Type             X           Y           Z
 ---------------------------------------------------------------------
      1          7           0       30.112000   28.080000   27.542000
      2          1           0       29.523000   27.423000   28.032000
      3          6           0       29.462000   29.307000   27.051000
      4          1           0       29.271000   29.095000   25.999000
      5          6           0       28.022000   29.456000   27.625000
      6          1           0       28.034000   29.412000   28.715000
      7          6           0       27.466000   30.845000   27.115000
      8          1           0       28.051000   31.717000   27.406000
      9          1           0       27.311000   30.857000   26.036000
     10          1           0       26.481000   31.039000   27.540000
     11          6           0       27.082000   28.377000   27.181000
     12          1           0       26.854000   28.326000   26.117000
     13          1           0       27.591000   27.462000   27.483000
     14          1           0       26.135000   28.306000   27.716000
     15          6           0       30.285000   30.577000   27.286000
     16          8           0       30.477000   30.979000   28.434000
     17          7           0       30.740000   31.210000   26.181000
     18          1           0       30.598000   30.804000   25.267000
     19          6           0       31.581000   32.434000   26.266000
     20          1           0       31.689000   32.768000   27.298000
     21          6           0       32.887000   32.014000   25.673000
     22          1           0       33.227000   31.104000   26.168000
     23          1           0       32.620000   31.813000   24.636000
     24          8           0       33.847000   33.012000   25.757000
     25          1           0       34.198000   33.004000   26.651000
     26          6           0       30.913000   33.628000   25.648000
     27          8           0       29.672000   33.766000   25.708000
 ---------------------------------------------------------------------
                    Distance matrix (angstroms):
                    1          2          3          4          5
     1  N    0.000000
     2  H    1.009292   0.000000
     3  C    1.472790   2.124980   0.000000
     4  H    2.029373   2.644272   1.090013   0.000000
     5  C    2.503670   2.559636   1.557330   2.081874   0.000000
     6  H    2.732808   2.576768   2.195246   3.001219   1.090954
     7  C    3.850827   4.096611   2.520626   2.750633   1.580682
     8  H    4.182581   4.582259   2.815146   3.216043   2.271766
     9  H    4.222010   4.546352   2.838930   2.635833   2.234557
    10  H    4.683999   4.750925   3.482141   3.733352   2.210836
    11  C    3.065849   2.755503   2.558554   2.589280   1.498325
    12  H    3.564506   3.406787   2.938772   2.539129   2.217022
    13  H    2.596314   2.008867   2.662948   2.773327   2.044984
    14  H    3.987215   3.515407   3.537394   3.661298   2.211685
    15  C    2.516043   3.329396   1.531488   2.209273   2.548084
    16  O    3.055011   3.703627   2.395516   3.306526   3.000172
    17  N    3.470390   4.387329   2.451855   2.581532   3.542482
    18  H    3.582178   4.498001   2.591170   2.284170   3.743400
    19  C    4.769010   5.697740   3.858045   4.068945   4.835478
    20  H    4.952152   5.813720   4.122992   4.585308   4.952087
    21  C    5.164314   6.161060   4.577921   4.658572   5.832829
    22  H    4.553644   5.544716   4.264285   4.440110   5.650733
    23  H    5.354455   6.355810   4.699492   4.523394   5.969185
    24  O    6.439027   7.423579   5.884699   6.028369   7.075676
    25  H    6.460267   7.410152   6.021421   6.323030   7.188877
    26  C    5.916852   6.790993   4.769156   4.833989   5.447201
    27  O    5.990639   6.756983   4.661591   4.697204   4.997348
                    6          7          8          9         10
     6  H    0.000000
     7  C    2.221736   0.000000
     8  H    2.650810   1.089628   0.000000
     9  H    3.128545   1.090142   1.778792   0.000000
    10  H    2.537629   1.090177   1.715383   1.727437   0.000000
    11  C    2.081030   2.498567   3.484994   2.741143   2.752513
    12  H    3.053097   2.777753   3.820106   2.573202   3.086167
    13  H    2.348739   3.405252   4.280485   3.701113   3.745701
    14  H    2.414009   2.929041   3.924548   3.273068   2.760431
    15  C    2.909685   2.836869   2.510927   3.238144   3.840361
    16  O    2.915939   3.289960   2.736221   3.973518   4.095223
    17  N    4.120242   3.424129   2.998065   3.450170   4.473835
    18  H    4.516687   3.636786   3.449072   3.376172   4.708656
    19  C    5.264152   4.492098   3.778173   4.557711   5.438667
    20  H    5.160392   4.643829   3.788312   4.940794   5.492838
    21  C    6.290928   5.730023   5.145716   5.706329   6.743378
    22  H    6.026385   5.844058   5.357181   5.922625   6.884412
    23  H    6.590481   5.800533   5.343957   5.573098   6.835175
    24  O    7.449881   6.874388   6.163590   6.887754   7.831333
    25  H    7.426807   7.084942   6.325504   7.240069   8.012717
    26  C    5.955652   4.666796   3.864392   4.561073   5.470394
    27  O    5.539170   3.921521   3.115966   3.760876   4.579873
                   11         12         13         14         15
    11  C    0.000000
    12  H    1.089349   0.000000
    13  H    1.089729   1.776407   0.000000
    14  H    1.089989   1.753329   1.698988   0.000000
    15  C    3.887188   4.266770   4.123066   4.750246   0.000000
    16  O    4.457178   5.053022   4.647869   5.149118   1.231411
    17  N    4.733588   4.839685   5.065462   5.656453   1.352309
    18  H    4.681451   4.569521   5.012152   5.670624   2.055689
    19  C    6.126783   6.264375   6.490144   6.985829   2.483639
    20  H    6.365455   6.671083   6.706822   7.136602   2.602276
    21  C    7.014261   7.084883   7.214182   7.969480   3.381884
    22  H    6.798803   6.952339   6.837974   7.779561   3.191084
    23  H    6.996611   6.899224   7.233772   7.990036   3.741981
    24  O    8.323234   8.425571   8.539269   9.244407   4.577653
    25  H    8.504557   8.723713   8.663627   9.392412   4.648131
    26  C    6.678297   6.693777   7.240336   7.445105   3.519379
    27  O    6.157853   6.140196   6.871798   6.808380   3.610481
                   16         17         18         19         20
    16  O    0.000000
    17  N    2.280030   0.000000
    18  H    3.174138   1.010147   0.000000
    19  C    2.834795   1.487509   2.149695   0.000000
    20  H    2.441303   2.139078   3.028620   1.090066   0.000000
    21  C    3.808208   2.348210   2.620774   1.494552   2.155074
    22  H    3.565513   2.489292   2.795253   2.118448   2.532043
    23  H    4.439911   2.506997   2.346215   2.030286   2.977420
    24  O    4.759865   3.616688   3.958707   2.393308   2.662927
    25  H    4.596254   3.923914   4.440209   2.705885   2.601804
    26  C    3.868991   2.482084   2.866943   1.501261   2.016005
    27  O    3.980762   2.810247   3.134550   2.393714   2.755430
                   21         22         23         24         25
    21  C    0.000000
    22  H    1.090287   0.000000
    23  H    1.089522   1.793921   0.000000
    24  O    1.387321   2.047873   2.049334   0.000000
    25  H    1.911885   2.187723   2.822905   0.960469   0.000000
    26  C    2.549960   3.463462   2.689278   2.999949   3.490933
    27  O    3.661551   4.464960   3.695145   4.242822   4.685570
                   26         27
    26  C    0.000000
    27  O    1.250090   0.000000
 Stoichiometry    C8H14N2O3
 Framework group  C1[X(C8H14N2O3)]
 Deg. of freedom    75
 Full point group                 C1      NOp   1
 Largest Abelian subgroup         C1      NOp   1
 Largest concise Abelian subgroup C1      NOp   1
                         Standard orientation:                         
 ---------------------------------------------------------------------
 Center     Atomic      Atomic             Coordinates (Angstroms)
 Number     Number       Type             X           Y           Z
 ---------------------------------------------------------------------
      1          7           0       -2.117228   -2.160505   -0.183401
      2          1           0       -3.090970   -2.308625    0.036956
      3          6           0       -1.671097   -0.760496   -0.283655
      4          1           0       -1.672701   -0.564948   -1.355983
      5          6           0       -2.762955    0.222303    0.233288
      6          1           0       -3.064739   -0.035164    1.249564
      7          6           0       -2.140047    1.673792    0.172288
      8          1           0       -1.233306    1.817455    0.759206
      9          1           0       -1.964834    2.005562   -0.851254
     10          1           0       -2.836153    2.403552    0.586259
     11          6           0       -4.019152    0.210613   -0.583296
     12          1           0       -3.940950    0.546003   -1.616775
     13          1           0       -4.317716   -0.837305   -0.567905
     14          1           0       -4.886504    0.707913   -0.149167
     15          6           0       -0.322545   -0.493364    0.391256
     16          8           0       -0.223053   -0.576817    1.615801
     17          7           0        0.698318   -0.146050   -0.424801
     18          1           0        0.571752   -0.146833   -1.426986
     19          6           0        2.069148    0.106768    0.094422
     20          1           0        2.094396    0.057328    1.183074
     21          6           0        2.895207   -0.968017   -0.534982
     22          1           0        2.427957   -1.934467   -0.344254
     23          1           0        2.841950   -0.715352   -1.593463
     24          8           0        4.207014   -0.954229   -0.083725
     25          1           0        4.223676   -1.381461    0.776331
     26          6           0        2.513978    1.521744   -0.137423
     27          8           0        1.691700    2.462566   -0.099524
 ---------------------------------------------------------------------
 Rotational constants (GHZ):           1.3886524           0.4198535           0.3546858
 Standard basis: 6-31G (6D, 7F)
 There are   145 symmetry adapted cartesian basis functions of A   symmetry.
 There are   145 symmetry adapted basis functions of A   symmetry.
   145 basis functions,   342 primitive gaussians,   145 cartesian basis functions
    50 alpha electrons       50 beta electrons
       nuclear repulsion energy       820.4941896155 Hartrees.
 NAtoms=   27 NActive=   27 NUniq=   27 SFac= 1.00D+00 NAtFMM=   60 NAOKFM=F Big=F
 Integral buffers will be    131072 words long.
 Raffenetti 2 integral format.
 Two-electron integral symmetry is turned on.
 One-electron integrals computed using PRISM.
 NBasis=   145 RedAO= T EigKep=  3.58D-03  NBF=   145
 NBsUse=   145 1.00D-06 EigRej= -1.00D+00 NBFU=   145
 ExpMin= 1.61D-01 ExpMax= 5.48D+03 ExpMxC= 8.25D+02 IAcc=3 IRadAn=         5 AccDes= 0.00D+00
 Harris functional with IExCor=  402 and IRadAn=       5 diagonalized for initial guess.
 HarFok:  IExCor=  402 AccDes= 0.00D+00 IRadAn=         5 IDoV= 1 UseB2=F ITyADJ=14
 ICtDFT=  3500011 ScaDFX=  1.000000  1.000000  1.000000  1.000000
 FoFCou: FMM=F IPFlag=           0 FMFlag=      100000 FMFlg1=           0
         NFxFlg=           0 DoJE=T BraDBF=F KetDBF=T FulRan=T
         wScrn=  0.000000 ICntrl=       500 IOpCl=  0 I1Cent=   200000004 NGrid=           0
         NMat0=    1 NMatS0=      1 NMatT0=    0 NMatD0=    1 NMtDS0=    0 NMtDT0=    0
 Petite list used in FoFCou.
 Requested convergence on RMS density matrix=1.00D-08 within 128 cycles.
 Requested convergence on MAX density matrix=1.00D-06.
 Requested convergence on             energy=1.00D-06.
 No special actions if energy rises.
 Integral accuracy reduced to 1.0D-05 until final iterations.
 EnCoef did     2 forward-backward iterations
 EnCoef did     5 forward-backward iterations
 Problem detected with inexpensive integrals.
 Switching to full accuracy and repeating last cycle.
 EnCoef did     2 forward-backward iterations
 EnCoef did     2 forward-backward iterations
 EnCoef did    15 forward-backward iterations
 EnCoef did     7 forward-backward iterations
 EnCoef did     7 forward-backward iterations
 EnCoef did     7 forward-backward iterations
 EnCoef did     6 forward-backward iterations
 Rare condition: small coef for last iteration:  0.000D+00
 EnCoef did   100 forward-backward iterations
 EnCoef did   100 forward-backward iterations
 EnCoef did   100 forward-backward iterations
 EnCoef did    20 forward-backward iterations
 EnCoef did     2 forward-backward iterations
 Restarting incremental Fock formation.
 SCF Done:  E(RB3LYP) =  -648.017347787     A.U. after   30 cycles
            NFock= 30  Conv=0.48D-08     -V/T= 2.0049
 SCF density gives NOpUse=  1 NOpAll=  1.

 **********************************************************************

            Population analysis using the SCF Density.

 **********************************************************************

 Orbital symmetries:
 BldTbl:  Degeneracy threshold= 1.00D-02
       Occupied  (A) (A) (A) (A) (A) (A) (A) (A) (A) (A) (A) (A)
                 (A) (A) (A) (A) (A) (A) (A) (A) (A) (A) (A) (A)
                 (A) (A) (A) (A) (A) (A) (A) (A) (A) (A) (A) (A)
                 (A) (A) (A) (A) (A) (A) (A) (A) (A) (A) (A) (A)
                 (A) (A)
       Virtual   (A) (A) (A) (A) (A) (A) (A) (A) (A) (A) (A) (A)
                 (A) (A) (A) (A) (A) (A) (A) (A) (A) (A) (A) (A)
                 (A) (A) (A) (A) (A) (A) (A) (A) (A) (A) (A) (A)
                 (A) (A) (A) (A) (A) (A) (A) (A) (A) (A) (A) (A)
                 (A) (A) (A) (A) (A) (A) (A) (A) (A) (A) (A) (A)
                 (A) (A) (A) (A) (A) (A) (A) (A) (A) (A) (A) (A)
                 (A) (A) (A) (A) (A) (A) (A) (A) (A) (A) (A) (A)
                 (A) (A) (A) (A) (A) (A) (A) (A) (A) (A) (A)
 The electronic state is 1-A.
 Alpha  occ. eigenvalues --  -19.22574 -19.16783 -19.13986 -14.39533 -14.32747
 Alpha  occ. eigenvalues --  -10.31767 -10.31731 -10.27704 -10.26288 -10.23521
 Alpha  occ. eigenvalues --  -10.19767 -10.17541 -10.16828  -1.10497  -1.07797
 Alpha  occ. eigenvalues --   -1.07385  -0.96614  -0.88134  -0.81679  -0.79009
 Alpha  occ. eigenvalues --   -0.70890  -0.69787  -0.67945  -0.63156  -0.60358
 Alpha  occ. eigenvalues --   -0.58021  -0.53984  -0.52789  -0.52013  -0.49841
 Alpha  occ. eigenvalues --   -0.49039  -0.47395  -0.45139  -0.44593  -0.43368
 Alpha  occ. eigenvalues --   -0.41638  -0.41591  -0.40280  -0.39753  -0.39482
 Alpha  occ. eigenvalues --   -0.38431  -0.36541  -0.35167  -0.34238  -0.33185
 Alpha  occ. eigenvalues --   -0.30592  -0.28454  -0.27704  -0.24058  -0.18524
 Alpha virt. eigenvalues --   -0.16259  -0.06793  -0.00191   0.03823   0.05546
 Alpha virt. eigenvalues --    0.08498   0.10296   0.10877   0.11933   0.12559
 Alpha virt. eigenvalues --    0.14125   0.14281   0.15033   0.16529   0.17670
 Alpha virt. eigenvalues --    0.17811   0.18761   0.19660   0.21331   0.22364
 Alpha virt. eigenvalues --    0.23543   0.24942   0.25668   0.26493   0.26754
 Alpha virt. eigenvalues --    0.29051   0.30409   0.35483   0.40655   0.51143
 Alpha virt. eigenvalues --    0.51599   0.51932   0.53015   0.54447   0.55335
 Alpha virt. eigenvalues --    0.56425   0.57554   0.57910   0.59906   0.60666
 Alpha virt. eigenvalues --    0.61463   0.63388   0.64746   0.66197   0.68099
 Alpha virt. eigenvalues --    0.70290   0.71827   0.72752   0.73472   0.75076
 Alpha virt. eigenvalues --    0.76416   0.79710   0.81041   0.81391   0.82633
 Alpha virt. eigenvalues --    0.84349   0.85234   0.85657   0.87473   0.88766
 Alpha virt. eigenvalues --    0.89203   0.91279   0.92213   0.93362   0.93822
 Alpha virt. eigenvalues --    0.94351   0.95621   0.95929   0.96858   0.97660
 Alpha virt. eigenvalues --    0.99312   1.00083   1.02454   1.02948   1.04541
 Alpha virt. eigenvalues --    1.05593   1.07371   1.08345   1.13195   1.16747
 Alpha virt. eigenvalues --    1.18042   1.22577   1.24529   1.25896   1.32810
 Alpha virt. eigenvalues --    1.40460   1.44687   1.52638   1.61329   1.62899
 Alpha virt. eigenvalues --    1.63209   1.71139   1.76478   1.85056   2.10248
          Condensed to atoms (all electrons):
               1          2          3          4          5          6
     1  N    7.036153   0.275915   0.321277  -0.060595  -0.061287  -0.002256
     2  H    0.275915   0.504445  -0.064940   0.005407  -0.004810   0.001388
     3  C    0.321277  -0.064940   5.582179   0.348669   0.244174  -0.043593
     4  H   -0.060595   0.005407   0.348669   0.661890  -0.064120   0.007693
     5  C   -0.061287  -0.004810   0.244174  -0.064120   5.201467   0.384371
     6  H   -0.002256   0.001388  -0.043593   0.007693   0.384371   0.591141
     7  C    0.005696   0.000439  -0.049122  -0.001627   0.294931  -0.032735
     8  H    0.000179   0.000008  -0.006948   0.000891  -0.031219  -0.000747
     9  H    0.000002   0.000010  -0.003383   0.005227  -0.038022   0.004416
    10  H   -0.000142  -0.000014   0.004587  -0.000055  -0.026019  -0.002984
    11  C   -0.010879  -0.003179  -0.051653  -0.006609   0.335638  -0.052680
    12  H   -0.000067   0.000083  -0.005694   0.006128  -0.031563   0.005439
    13  H    0.008620   0.012100  -0.004757  -0.001391  -0.058889  -0.004111
    14  H    0.000147  -0.000239   0.004706  -0.000183  -0.025402  -0.005108
    15  C   -0.059059   0.003234   0.076373  -0.067088  -0.017378  -0.007208
    16  O    0.000144  -0.000034  -0.112594   0.002772   0.004797   0.003857
    17  N    0.001068  -0.000172  -0.132755   0.000623   0.000162   0.000294
    18  H   -0.000244   0.000009   0.003966   0.008173  -0.000283   0.000020
    19  C   -0.000097   0.000005   0.004637  -0.000526  -0.000221  -0.000003
    20  H    0.000017   0.000001   0.001553   0.000011  -0.000051   0.000000
    21  C    0.000003  -0.000000  -0.000360  -0.000032   0.000002  -0.000000
    22  H    0.000012  -0.000000  -0.000061  -0.000024   0.000002  -0.000000
    23  H   -0.000001   0.000000   0.000061   0.000034  -0.000000   0.000000
    24  O   -0.000000   0.000000   0.000001  -0.000000   0.000000  -0.000000
    25  H    0.000000   0.000000   0.000000   0.000000  -0.000000   0.000000
    26  C   -0.000002  -0.000000  -0.000398  -0.000058   0.000045  -0.000001
    27  O    0.000000   0.000000   0.000101   0.000090  -0.000018   0.000002
               7          8          9         10         11         12
     1  N    0.005696   0.000179   0.000002  -0.000142  -0.010879  -0.000067
     2  H    0.000439   0.000008   0.000010  -0.000014  -0.003179   0.000083
     3  C   -0.049122  -0.006948  -0.003383   0.004587  -0.051653  -0.005694
     4  H   -0.001627   0.000891   0.005227  -0.000055  -0.006609   0.006128
     5  C    0.294931  -0.031219  -0.038022  -0.026019   0.335638  -0.031563
     6  H   -0.032735  -0.000747   0.004416  -0.002984  -0.052680   0.005439
     7  C    5.181484   0.363226   0.371533   0.359926  -0.062395  -0.006173
     8  H    0.363226   0.560651  -0.030406  -0.033027   0.004648   0.000082
     9  H    0.371533  -0.030406   0.604410  -0.036305  -0.006077   0.004974
    10  H    0.359926  -0.033027  -0.036305   0.599329  -0.002295  -0.000348
    11  C   -0.062395   0.004648  -0.006077  -0.002295   5.156853   0.374076
    12  H   -0.006173   0.000082   0.004974  -0.000348   0.374076   0.580309
    13  H    0.008836  -0.000249  -0.000005  -0.000184   0.349418  -0.029453
    14  H   -0.003302  -0.000059  -0.000215   0.002076   0.376065  -0.033305
    15  C   -0.001468   0.007798  -0.001890  -0.000245   0.006247  -0.000080
    16  O   -0.006641   0.003213   0.000140   0.000011   0.000140   0.000000
    17  N    0.002406  -0.002084   0.000096   0.000116  -0.000133  -0.000010
    18  H   -0.000031   0.000111   0.000234  -0.000002  -0.000032   0.000003
    19  C    0.000040  -0.000507  -0.000036  -0.000001   0.000004   0.000000
    20  H    0.000008   0.000034   0.000002   0.000000   0.000000   0.000000
    21  C   -0.000003   0.000013   0.000000   0.000000   0.000000  -0.000000
    22  H    0.000000   0.000001  -0.000000  -0.000000  -0.000000  -0.000000
    23  H   -0.000000   0.000000   0.000000  -0.000000  -0.000000   0.000000
    24  O   -0.000000   0.000000   0.000000  -0.000000   0.000000   0.000000
    25  H    0.000000   0.000000   0.000000   0.000000  -0.000000  -0.000000
    26  C    0.000111  -0.000039  -0.000003  -0.000002   0.000000  -0.000000
    27  O   -0.000934   0.003966   0.000180   0.000007  -0.000000   0.000000
              13         14         15         16         17         18
     1  N    0.008620   0.000147  -0.059059   0.000144   0.001068  -0.000244
     2  H    0.012100  -0.000239   0.003234  -0.000034  -0.000172   0.000009
     3  C   -0.004757   0.004706   0.076373  -0.112594  -0.132755   0.003966
     4  H   -0.001391  -0.000183  -0.067088   0.002772   0.000623   0.008173
     5  C   -0.058889  -0.025402  -0.017378   0.004797   0.000162  -0.000283
     6  H   -0.004111  -0.005108  -0.007208   0.003857   0.000294   0.000020
     7  C    0.008836  -0.003302  -0.001468  -0.006641   0.002406  -0.000031
     8  H   -0.000249  -0.000059   0.007798   0.003213  -0.002084   0.000111
     9  H   -0.000005  -0.000215  -0.001890   0.000140   0.000096   0.000234
    10  H   -0.000184   0.002076  -0.000245   0.000011   0.000116  -0.000002
    11  C    0.349418   0.376065   0.006247   0.000140  -0.000133  -0.000032
    12  H   -0.029453  -0.033305  -0.000080   0.000000  -0.000010   0.000003
    13  H    0.640938  -0.037860   0.000629  -0.000002  -0.000003  -0.000001
    14  H   -0.037860   0.574068  -0.000095   0.000000   0.000001  -0.000000
    15  C    0.000629  -0.000095   4.895755   0.593632  -0.010059  -0.010319
    16  O   -0.000002   0.000000   0.593632   8.073132  -0.139438   0.002460
    17  N   -0.000003   0.000001  -0.010059  -0.139438   7.658297   0.308284
    18  H   -0.000001  -0.000000  -0.010319   0.002460   0.308284   0.384571
    19  C    0.000000  -0.000000  -0.014123   0.002253   0.061826  -0.042518
    20  H   -0.000000  -0.000000   0.006526   0.015339  -0.032883   0.003218
    21  C   -0.000000  -0.000000   0.001863  -0.000033  -0.055290  -0.000347
    22  H   -0.000000   0.000000   0.002304   0.000470   0.004930  -0.000228
    23  H   -0.000000  -0.000000  -0.000301  -0.000032   0.003091   0.006120
    24  O    0.000000   0.000000  -0.000032  -0.000001   0.004744  -0.000011
    25  H   -0.000000   0.000000   0.000004  -0.000018  -0.000086   0.000024
    26  C    0.000000   0.000000   0.002895   0.000108  -0.046900   0.000076
    27  O   -0.000000  -0.000000   0.000164  -0.000017  -0.002455   0.001596
              19         20         21         22         23         24
     1  N   -0.000097   0.000017   0.000003   0.000012  -0.000001  -0.000000
     2  H    0.000005   0.000001  -0.000000  -0.000000   0.000000   0.000000
     3  C    0.004637   0.001553  -0.000360  -0.000061   0.000061   0.000001
     4  H   -0.000526   0.000011  -0.000032  -0.000024   0.000034  -0.000000
     5  C   -0.000221  -0.000051   0.000002   0.000002  -0.000000   0.000000
     6  H   -0.000003   0.000000  -0.000000  -0.000000   0.000000  -0.000000
     7  C    0.000040   0.000008  -0.000003   0.000000  -0.000000  -0.000000
     8  H   -0.000507   0.000034   0.000013   0.000001   0.000000   0.000000
     9  H   -0.000036   0.000002   0.000000  -0.000000   0.000000   0.000000
    10  H   -0.000001   0.000000   0.000000  -0.000000  -0.000000  -0.000000
    11  C    0.000004   0.000000   0.000000  -0.000000  -0.000000   0.000000
    12  H    0.000000   0.000000  -0.000000  -0.000000   0.000000   0.000000
    13  H    0.000000  -0.000000  -0.000000  -0.000000  -0.000000   0.000000
    14  H   -0.000000  -0.000000  -0.000000   0.000000  -0.000000   0.000000
    15  C   -0.014123   0.006526   0.001863   0.002304  -0.000301  -0.000032
    16  O    0.002253   0.015339  -0.000033   0.000470  -0.000032  -0.000001
    17  N    0.061826  -0.032883  -0.055290   0.004930   0.003091   0.004744
    18  H   -0.042518   0.003218  -0.000347  -0.000228   0.006120  -0.000011
    19  C    5.776913   0.360773   0.163845  -0.065196  -0.073946  -0.081308
    20  H    0.360773   0.476416  -0.030190  -0.006271   0.006115   0.000701
    21  C    0.163845  -0.030190   5.009823   0.381485   0.374577   0.230922
    22  H   -0.065196  -0.006271   0.381485   0.599235  -0.039794  -0.041476
    23  H   -0.073946   0.006115   0.374577  -0.039794   0.611304  -0.036315
    24  O   -0.081308   0.000701   0.230922  -0.041476  -0.036315   8.237580
    25  H   -0.002652   0.004539  -0.040449  -0.010400   0.008115   0.248611
    26  C    0.107425  -0.042302  -0.031105   0.006073  -0.009772   0.008775
    27  O   -0.073916  -0.002301   0.002953  -0.000084   0.000173   0.000006
              25         26         27
     1  N    0.000000  -0.000002   0.000000
     2  H    0.000000  -0.000000   0.000000
     3  C    0.000000  -0.000398   0.000101
     4  H    0.000000  -0.000058   0.000090
     5  C   -0.000000   0.000045  -0.000018
     6  H    0.000000  -0.000001   0.000002
     7  C    0.000000   0.000111  -0.000934
     8  H    0.000000  -0.000039   0.003966
     9  H    0.000000  -0.000003   0.000180
    10  H    0.000000  -0.000002   0.000007
    11  C   -0.000000   0.000000  -0.000000
    12  H   -0.000000  -0.000000   0.000000
    13  H   -0.000000   0.000000  -0.000000
    14  H    0.000000   0.000000  -0.000000
    15  C    0.000004   0.002895   0.000164
    16  O   -0.000018   0.000108  -0.000017
    17  N   -0.000086  -0.046900  -0.002455
    18  H    0.000024   0.000076   0.001596
    19  C   -0.002652   0.107425  -0.073916
    20  H    0.004539  -0.042302  -0.002301
    21  C   -0.040449  -0.031105   0.002953
    22  H   -0.010400   0.006073  -0.000084
    23  H    0.008115  -0.009772   0.000173
    24  O    0.248611   0.008775   0.000006
    25  H    0.426531  -0.000866  -0.000004
    26  C   -0.000866   5.292334   0.367225
    27  O   -0.000004   0.367225   8.023209
 Mulliken charges:
               1
     1  N   -0.454604
     2  H    0.270345
     3  C   -0.116027
     4  H    0.154701
     5  C   -0.106306
     6  H    0.152806
     7  C   -0.424202
     8  H    0.160465
     9  H    0.125117
    10  H    0.135571
    11  C   -0.407158
    12  H    0.135599
    13  H    0.116365
    14  H    0.148706
    15  C    0.591922
    16  O   -0.443658
    17  N   -0.623670
    18  H    0.335150
    19  C   -0.122672
    20  H    0.238746
    21  C   -0.007679
    22  H    0.169022
    23  H    0.150570
    24  O   -0.572196
    25  H    0.366651
    26  C    0.346379
    27  O   -0.319943
 Sum of Mulliken charges =  -0.00000
 Mulliken charges with hydrogens summed into heavy atoms:
               1
     1  N   -0.184259
     3  C    0.038674
     5  C    0.046500
     7  C   -0.003048
    11  C   -0.006488
    15  C    0.591922
    16  O   -0.443658
    17  N   -0.288520
    19  C    0.116074
    21  C    0.311913
    24  O   -0.205546
    26  C    0.346379
    27  O   -0.319943
 DipInt: DoE/N= T F RetVal/Mat= T F Init=T NMatP=  1 IDeriv=0 Min/MaxMlt=  0  4
 Entering OneElI...
 OneElI was handed  6710829950 working-precision words.
 Multipole integrals L=0 to 4 MinM= 0 MaxM= 0.
 Requested accuracy = 0.1000D-12
 ShPair: Thresh= 1.00D-13 NBox=     0 BxSize= 0.00D+00 RnKept= 1.77D+01
         NSMCal=                 2278 NSMKep=                1995
 PrmmSu-InSpLW:  IPartL=    0 NPrtUS=    1 NPrtUL=    1 DoSpLW=F IThBeg=    0 IThEnd=    0 NThAct=    1.
 PrSmSu:  IncTry=   512 NBBP=           1995 NTPThr=   100 NPartT=    1 Incr=          19 LDynOK=F GPUOK=F.
 PrsmSu:  NPrtUS=   1 ThrOK=F IAlg=2 LenDen=           0 ISkipM=0 DoSpLW=F IThBeg=    0 IThEnd=    0.
 Prism:   IPart=     0 DynPar=F LinDyn=F Incr=          19.
 PRISM was handed  6710653471 working-precision words and  1995 shell-pairs
 IPart=  0 NShTot=        1995 NBatch=          36 AvBLen=        55.4
 PrsmSu-ThDecC:  IPartSL=    0    0 NPrtUSL=    1    1 IThBeg=    0 IThEnd=    0 CPU=   -1 GPU=   -1 NThAct=    1.
 PrSmSu:  NxtVal=             20.
 Electronic moments (au):
       -100.00000000         -0.23870442         -0.15232513         -0.65279556
      -2309.67120882       -636.78616269       -211.42545915         -6.02576335
          4.31394415         -0.69709437       -291.12726264       -586.90010335
       -160.43424756        -99.73829022        631.45268056        865.83061842
        146.84206900         97.91631156         74.67789885         10.25813466
    -103345.07275962     -10681.78437537      -1748.19604562       8967.96222100
      -2462.88515354      -3385.12920736       -182.48866611        -16.79577103
        211.43825892     -12484.13583041      -3503.18934877       -760.29661455
       -545.24272093        247.38673034        236.76407775
 Electronic spatial extent (au):  <R**2>=           3157.8828
 DipInt: DoE/N= F T RetVal/Mat= T F Init=T NMatP=  1 IDeriv=0 Min/MaxMlt=  0  4
 Nuclear    moments (au):
        100.00000000         -0.00000000         -0.00000000          0.00000000
       2253.01449042        569.98349573        153.74498704         -0.00000000
          0.00000000         -0.00000000        199.72240731        581.23600289
        145.52173530        113.78243656       -660.83994378       -814.63015113
       -119.85871733        -93.10643866        -61.23754614        -17.90381680
      94863.86327547       8274.79717691       1056.16771761      -8992.53308293
       2771.89156326       3190.57619330        142.09334731         25.87681107
       -212.01240757      10863.03851933       2157.26936729        292.61566144
        420.74606105       -228.56399614       -265.02860914
 Total      moments (au):
         -0.00000000         -0.23870442         -0.15232513         -0.65279556
        -56.65671839        -66.80266696        -57.68047212         -6.02576335
          4.31394415         -0.69709437        -91.40485533         -5.66410046
        -14.91251226         14.04414634        -29.38726322         51.20046729
         26.98335168          4.80987290         13.44035271         -7.64568215
      -8481.20948415      -2406.98719845       -692.02832801        -24.57086193
        309.00640972       -194.55301405        -40.39531881          9.08104004
         -0.57414864      -1621.09731108      -1345.91998148       -467.68095311
       -124.49665988         18.82273420        -28.26453139
 Traceless Quadrup. (au):
          3.72323410         -6.42271447          2.69948037         -6.02576335
          4.31394415         -0.69709437
 Charge=             -0.0000 electrons
 Dipole moment (field-independent basis, Debye):
    X=             -0.6067    Y=             -0.3872    Z=             -1.6592  Tot=              1.8086
 Quadrupole moment (field-independent basis, Debye-Ang):
   XX=            -76.2052   YY=            -89.8519   ZZ=            -77.5822
   XY=             -8.1049   XZ=              5.8024   YZ=             -0.9376
 Traceless Quadrupole moment (field-independent basis, Debye-Ang):
   XX=              5.0079   YY=             -8.6388   ZZ=              3.6309
   XY=             -8.1049   XZ=              5.8024   YZ=             -0.9376
 Octapole moment (field-independent basis, Debye-Ang**2):
  XXX=            -65.0585  YYY=             -4.0315  ZZZ=            -10.6142  XYY=              9.9961
  XXY=            -20.9167  XXZ=             36.4425  XZZ=             19.2057  YZZ=              3.4235
  YYZ=              9.5663  XYZ=             -5.4419
 Hexadecapole moment (field-independent basis, Debye-Ang**3):
 XXXX=          -3194.4302 YYYY=           -906.5868 ZZZZ=           -260.6511 XXXY=             -9.2546
 XXXZ=            116.3866 YYYX=            -73.2780 YYYZ=            -15.2148 ZZZX=              3.4204
 ZZZY=             -0.2163 XXYY=           -610.5830 XXZZ=           -506.9380 YYZZ=           -176.1511
 XXYZ=            -46.8914 YYXZ=              7.0895 ZZXY=            -10.6458
 N-N= 8.204941896155D+02 E-N=-3.154007987154D+03  KE= 6.448478611342D+02
 Entering OneElI...
 OneElI was handed  6710839688 working-precision words.
 Calculate electrostatic properties
    NBasis =   145  MinDer = 0  MaxDer = 0
    NGrid  =    27  NMatD  =   1
 Requested accuracy = 0.1000D-12
 PrtBox:  NBox=     1 Levels=  1 BoxLen=   29.89 SMaxX=       17.22
          Shift=            9.234154            4.362670            3.055263
 Box      1 Number                   0 centers from      1 to     67:
 ShPair: Thresh= 1.00D-13 NBox=     1 BxSize= 2.99D+01 RnKept= 1.65D+01
         NSMCal=                 2278 NSMKep=                1855
 PrmmSu-InSpLW:  IPartL=    0 NPrtUS=   12 NPrtUL=    1 DoSpLW=F IThBeg=    0 IThEnd=   11 NThAct=   12.
 PrSmSu:  IncTry=   512 NBBP=          50085 NTPThr=   100 NPartT=   12 Incr=          41 LDynOK=F GPUOK=F.
 PrsmSu:  NPrtUS=  12 ThrOK=T IAlg=2 LenDen=           0 ISkipM=0 DoSpLW=F IThBeg=    0 IThEnd=   11.
 Prism:   IPart=     0 DynPar=F LinDyn=F Incr=          41.
 PRISM was handed   559161797 working-precision words and  1855 shell-pairs
 PRISM was handed   559161797 working-precision words and  1855 shell-pairs
 PRISM was handed   559161797 working-precision words and  1855 shell-pairs
 PRISM was handed   559161797 working-precision words and  1855 shell-pairs
 PRISM was handed   559161797 working-precision words and  1855 shell-pairs
 PRISM was handed   559161797 working-precision words and  1855 shell-pairs
 PRISM was handed   559161797 working-precision words and  1855 shell-pairs
 PRISM was handed   559161797 working-precision words and  1855 shell-pairs
 PRISM was handed   559161797 working-precision words and  1855 shell-pairs
 PRISM was handed   559161797 working-precision words and  1855 shell-pairs
 PRISM was handed   559161797 working-precision words and  1855 shell-pairs
 PRISM was handed   559161797 working-precision words and  1855 shell-pairs
 IPart= 10 NShTot=        3915 NBatch=         145 AvBLen=        27.0
 PrsmSu-ThDecC:  IPartSL=   10    0 NPrtUSL=   12    1 IThBeg=    0 IThEnd=   11 CPU=   -1 GPU=   -1 NThAct=   12.
 IPart=  9 NShTot=        3996 NBatch=         148 AvBLen=        27.0
 PrsmSu-ThDecC:  IPartSL=    9    0 NPrtUSL=   12    1 IThBeg=    0 IThEnd=   11 CPU=   -1 GPU=   -1 NThAct=   11.
 IPart=  5 NShTot=        4185 NBatch=         155 AvBLen=        27.0
 PrsmSu-ThDecC:  IPartSL=    5    0 NPrtUSL=   12    1 IThBeg=    0 IThEnd=   11 CPU=   -1 GPU=   -1 NThAct=   10.
 IPart=  0 NShTot=        4698 NBatch=         174 AvBLen=        27.0
 PrsmSu-ThDecC:  IPartSL=    0    0 NPrtUSL=   12    1 IThBeg=    0 IThEnd=   11 CPU=   -1 GPU=   -1 NThAct=    9.
 IPart=  2 NShTot=        4347 NBatch=         161 AvBLen=        27.0
 PrsmSu-ThDecC:  IPartSL=    2    0 NPrtUSL=   12    1 IThBeg=    0 IThEnd=   11 CPU=   -1 GPU=   -1 NThAct=    8.
 IPart=  3 NShTot=        4266 NBatch=         158 AvBLen=        27.0
 PrsmSu-ThDecC:  IPartSL=    3    0 NPrtUSL=   12    1 IThBeg=    0 IThEnd=   11 CPU=   -1 GPU=   -1 NThAct=    7.
 IPart= 11 NShTot=        3834 NBatch=         142 AvBLen=        27.0
 PrsmSu-ThDecC:  IPartSL=   11    0 NPrtUSL=   12    1 IThBeg=    0 IThEnd=   11 CPU=   -1 GPU=   -1 NThAct=    6.
 IPart=  7 NShTot=        4050 NBatch=         150 AvBLen=        27.0
 PrsmSu-ThDecC:  IPartSL=    7    0 NPrtUSL=   12    1 IThBeg=    0 IThEnd=   11 CPU=   -1 GPU=   -1 NThAct=    5.
 IPart=  6 NShTot=        4104 NBatch=         152 AvBLen=        27.0
 PrsmSu-ThDecC:  IPartSL=    6    0 NPrtUSL=   12    1 IThBeg=    0 IThEnd=   11 CPU=   -1 GPU=   -1 NThAct=    4.
 IPart=  4 NShTot=        4185 NBatch=         155 AvBLen=        27.0
 PrsmSu-ThDecC:  IPartSL=    4    0 NPrtUSL=   12    1 IThBeg=    0 IThEnd=   11 CPU=   -1 GPU=   -1 NThAct=    3.
 IPart=  8 NShTot=        4050 NBatch=         150 AvBLen=        27.0
 PrsmSu-ThDecC:  IPartSL=    8    0 NPrtUSL=   12    1 IThBeg=    0 IThEnd=   11 CPU=   -1 GPU=   -1 NThAct=    2.
 IPart=  1 NShTot=        4455 NBatch=         165 AvBLen=        27.0
 PrsmSu-ThDecC:  IPartSL=    1    0 NPrtUSL=   12    1 IThBeg=    0 IThEnd=   11 CPU=   -1 GPU=   -1 NThAct=    1.
 PrSmSu:  NxtVal=            493.
 --------------------------------------------------------
       Center         ----      EFG at Nuclei      ----
                      3XX-RR        3YY-RR        3ZZ-RR
 --------------------------------------------------------
     1   Atom        0.160655      0.288848     -0.449502
     2   Atom       -0.384109      0.199823      0.184285
     3   Atom        0.021819     -0.055317      0.033498
     4   Atom        0.151678      0.147033     -0.298711
     5   Atom       -0.032761     -0.035024      0.067785
     6   Atom        0.121993      0.129681     -0.251674
     7   Atom        0.039485     -0.051937      0.012452
     8   Atom       -0.171851      0.146459      0.025392
     9   Atom        0.151347      0.116464     -0.267811
    10   Atom       -0.041469     -0.050669      0.092138
    11   Atom       -0.009727      0.015774     -0.006047
    12   Atom        0.151691      0.118578     -0.270269
    13   Atom        0.119720     -0.283871      0.164151
    14   Atom       -0.134606      0.057200      0.077407
    15   Atom        0.087786     -0.245450      0.157664
    16   Atom        1.412799     -0.470063     -0.942736
    17   Atom       -0.450965      0.876297     -0.425331
    18   Atom        0.160505      0.237455     -0.397960
    19   Atom       -0.195366      0.030187      0.165179
    20   Atom        0.153539      0.145028     -0.298567
    21   Atom       -0.250195      0.122267      0.127928
    22   Atom        0.061018     -0.205851      0.144833
    23   Atom        0.145637      0.138201     -0.283838
    24   Atom       -0.687897      1.365719     -0.677821
    25   Atom        0.220292      0.127483     -0.347774
    26   Atom        0.332787      0.199573     -0.532359
    27   Atom        0.044496      0.421025     -0.465522
 --------------------------------------------------------
                        XY            XZ            YZ
 --------------------------------------------------------
     1   Atom       -0.678210     -0.178596      0.154485
     2   Atom       -0.101607      0.136219      0.022947
     3   Atom       -0.070932     -0.070100      0.015916
     4   Atom       -0.003873      0.009767      0.088638
     5   Atom        0.015499      0.021582     -0.024834
     6   Atom       -0.028571      0.116534      0.101561
     7   Atom       -0.033337      0.011387      0.015841
     8   Atom       -0.044168     -0.213814     -0.031697
     9   Atom       -0.024215      0.074034      0.129457
    10   Atom        0.203850      0.119585     -0.120737
    11   Atom        0.008522     -0.017929      0.018948
    12   Atom       -0.012154      0.037764      0.141886
    13   Atom       -0.124791     -0.005673      0.003891
    14   Atom        0.177053      0.151058     -0.091117
    15   Atom        0.102622      0.112133     -0.000034
    16   Atom        0.678560     -0.147306      0.029870
    17   Atom       -0.446299     -0.034398      0.071965
    18   Atom       -0.018742     -0.069473      0.004459
    19   Atom       -0.185379     -0.129504      0.009533
    20   Atom       -0.001575     -0.018023      0.028890
    21   Atom        0.049850     -0.136375     -0.046929
    22   Atom       -0.170377      0.027717      0.073279
    23   Atom        0.012103     -0.019603      0.098344
    24   Atom       -0.028808     -0.939141      1.078651
    25   Atom        0.009520     -0.040965      0.309337
    26   Atom       -0.018587     -0.094834     -0.036519
    27   Atom        0.586872     -0.051432     -0.140017
 --------------------------------------------------------


 ---------------------------------------------------------------------------------
              Nuclear Quadrupole Coupling Constant in Principal Axis System
 ---------------------------------------------------------------------------------

       Atom             a.u.   MegaHertz   Gauss  10(-4) cm-1        Axes

              Baa    -0.5048     2.425     0.865     0.809  0.4638  0.2298  0.8556
     1 N(14)  Bbb    -0.4406     2.116     0.755     0.706  0.5840  0.6469 -0.4904
              Bcc     0.9454    -4.540    -1.620    -1.515 -0.6662  0.7271  0.1658
 
              Baa    -0.5880     2.824     1.008     0.942  0.9549  0.2874  0.0748
    17 N(14)  Bbb    -0.4288     2.059     0.735     0.687 -0.0557 -0.0740  0.9957
              Bcc     1.0167    -4.883    -1.742    -1.629 -0.2917  0.9550  0.0546
 

 ---------------------------------------------------------------------------------

 No NMR shielding tensors so no spin-rotation constants.
 Leave Link  601 at Sat May  8 21:51:14 2021, MaxMem=  6710886400 cpu:               2.6 elap:               0.3
 FitSet:  NAtFit=    27 NAtPot=    27 NAtFrz=     0 MDM=    31 TotChg=   0.00000
 Merz-Kollman atomic radii used.
 Read replacement radii for each type of atom:
 Atom Element Radius
    1     7    1.50
    2     1    1.20
    3     6    1.50
    4     1    1.20
    5     6    1.50
    6     1    1.20
    7     6    1.50
    8     1    1.20
    9     1    1.20
   10     1    1.20
   11     6    1.50
   12     1    1.20
   13     1    1.20
   14     1    1.20
   15     6    1.50
   16     8    1.40
   17     7    1.50
   18     1    1.20
   19     6    1.50
   20     1    1.20
   21     6    1.50
   22     1    1.20
   23     1    1.20
   24     8    1.40
   25     1    1.20
   26     6    1.50
   27     8    1.40
 Generate VDW surfaces: Layer= 4 Dens= 6 Start= 1.400 Inc= 0.200

 **********************************************************************

            Electrostatic Properties Using The SCF Density.

 **********************************************************************

       Atomic Center    1 is at  -2.117228 -2.160505 -0.183401
       Atomic Center    2 is at  -3.090970 -2.308625  0.036956
       Atomic Center    3 is at  -1.671097 -0.760496 -0.283655
       Atomic Center    4 is at  -1.672701 -0.564948 -1.355983
       Atomic Center    5 is at  -2.762955  0.222303  0.233288
       Atomic Center    6 is at  -3.064739 -0.035164  1.249564
       Atomic Center    7 is at  -2.140047  1.673792  0.172288
       Atomic Center    8 is at  -1.233306  1.817455  0.759206
       Atomic Center    9 is at  -1.964834  2.005562 -0.851254
       Atomic Center   10 is at  -2.836153  2.403552  0.586259
       Atomic Center   11 is at  -4.019152  0.210613 -0.583296
       Atomic Center   12 is at  -3.940950  0.546003 -1.616775
       Atomic Center   13 is at  -4.317716 -0.837305 -0.567905
       Atomic Center   14 is at  -4.886504  0.707913 -0.149167
       Atomic Center   15 is at  -0.322545 -0.493364  0.391256
       Atomic Center   16 is at  -0.223053 -0.576817  1.615801
       Atomic Center   17 is at   0.698318 -0.146050 -0.424801
       Atomic Center   18 is at   0.571752 -0.146833 -1.426986
       Atomic Center   19 is at   2.069148  0.106768  0.094422
       Atomic Center   20 is at   2.094396  0.057328  1.183074
       Atomic Center   21 is at   2.895207 -0.968017 -0.534982
       Atomic Center   22 is at   2.427957 -1.934467 -0.344254
       Atomic Center   23 is at   2.841950 -0.715352 -1.593463
       Atomic Center   24 is at   4.207014 -0.954229 -0.083725
       Atomic Center   25 is at   4.223676 -1.381461  0.776331
       Atomic Center   26 is at   2.513978  1.521744 -0.137423
       Atomic Center   27 is at   1.691700  2.462566 -0.099524
      ESP Fit Center   28 is at  -2.117228 -2.160505  1.916599
      ESP Fit Center   29 is at  -1.707538 -2.160505  1.876249
      ESP Fit Center   30 is at  -1.912383 -1.805703  1.876249
      ESP Fit Center   31 is at  -2.322073 -1.805703  1.876249
      ESP Fit Center   32 is at  -2.526918 -2.160505  1.876249
      ESP Fit Center   33 is at  -2.322073 -2.515306  1.876249
      ESP Fit Center   34 is at  -1.912383 -2.515306  1.876249
      ESP Fit Center   35 is at  -2.117228 -1.356870  1.756746
      ESP Fit Center   36 is at  -2.813197 -1.758687  1.756746
      ESP Fit Center   37 is at  -2.920863 -2.160505  1.756746
      ESP Fit Center   38 is at  -2.813197 -2.562322  1.756746
      ESP Fit Center   39 is at  -2.519046 -2.856473  1.756746
      ESP Fit Center   40 is at  -2.117228 -2.964140  1.756746
      ESP Fit Center   41 is at  -1.715411 -2.856473  1.756746
      ESP Fit Center   42 is at  -1.421260 -2.562322  1.756746
      ESP Fit Center   43 is at  -2.820320 -3.091549  1.562686
      ESP Fit Center   44 is at  -2.436510 -3.282664  1.562686
      ESP Fit Center   45 is at  -2.009579 -3.322225  1.562686
      ESP Fit Center   46 is at  -1.597186 -3.204890  1.562686
      ESP Fit Center   47 is at  -1.255028 -2.946504  1.562686
      ESP Fit Center   48 is at  -1.029315 -2.581965  1.562686
      ESP Fit Center   49 is at  -2.734088 -3.511239  1.301524
      ESP Fit Center   50 is at  -2.328555 -3.630315  1.301524
      ESP Fit Center   51 is at  -1.905901 -3.630315  1.301524
      ESP Fit Center   52 is at  -1.500368 -3.511239  1.301524
      ESP Fit Center   53 is at  -1.144810 -3.282736  1.301524
      ESP Fit Center   54 is at  -0.868030 -2.963315  1.301524
      ESP Fit Center   55 is at  -0.692454 -2.578856  1.301524
      ESP Fit Center   56 is at  -2.736399 -3.793124  0.983297
      ESP Fit Center   57 is at  -2.327696 -3.893860  0.983297
      ESP Fit Center   58 is at  -1.906761 -3.893860  0.983297
      ESP Fit Center   59 is at  -1.498057 -3.793124  0.983297
      ESP Fit Center   60 is at  -1.125338 -3.597506  0.983297
      ESP Fit Center   61 is at  -0.810264 -3.318374  0.983297
      ESP Fit Center   62 is at  -0.571146 -2.971951  0.983297
      ESP Fit Center   63 is at  -0.421880 -2.578371  0.983297
      ESP Fit Center   64 is at  -2.835351 -3.962856  0.620235
      ESP Fit Center   65 is at  -2.431109 -4.075093  0.620235
      ESP Fit Center   66 is at  -2.012191 -4.097806  0.620235
      ESP Fit Center   67 is at  -1.598184 -4.029933  0.620235
      ESP Fit Center   68 is at  -1.208447 -3.874648  0.620235
      ESP Fit Center   69 is at  -0.861204 -3.639211  0.620235
      ESP Fit Center   70 is at  -0.572691 -3.334632  0.620235
      ESP Fit Center   71 is at  -0.356398 -2.975151  0.620235
      ESP Fit Center   72 is at  -3.024286 -4.009667  0.226289
      ESP Fit Center   73 is at  -2.633484 -4.154404  0.226289
      ESP Fit Center   74 is at  -2.221548 -4.217510  0.226289
      ESP Fit Center   75 is at  -1.805340 -4.196403  0.226289
      ESP Fit Center   76 is at  -1.401901 -4.091945  0.226289
      ESP Fit Center   77 is at  -1.027748 -3.908414  0.226289
      ESP Fit Center   78 is at  -0.698198 -3.653324  0.226289
      ESP Fit Center   79 is at  -0.426743 -3.337117  0.226289
      ESP Fit Center   80 is at  -0.224498 -2.972739  0.226289
      ESP Fit Center   81 is at  -0.099740 -2.575109  0.226289
      ESP Fit Center   82 is at  -2.920863 -4.100652 -0.183401
      ESP Fit Center   83 is at  -2.526918 -4.220154 -0.183401
      ESP Fit Center   84 is at  -2.117228 -4.260505 -0.183401
      ESP Fit Center   85 is at  -1.707538 -4.220154 -0.183401
      ESP Fit Center   86 is at  -1.313593 -4.100652 -0.183401
      ESP Fit Center   87 is at  -0.950531 -3.906591 -0.183401
      ESP Fit Center   88 is at  -0.632304 -3.645429 -0.183401
      ESP Fit Center   89 is at  -0.371142 -3.327202 -0.183401
      ESP Fit Center   90 is at  -0.177081 -2.964140 -0.183401
      ESP Fit Center   91 is at  -0.057579 -2.570194 -0.183401
      ESP Fit Center   92 is at  -3.024286 -4.009667 -0.593090
      ESP Fit Center   93 is at  -2.633484 -4.154404 -0.593090
      ESP Fit Center   94 is at  -2.221548 -4.217510 -0.593090
      ESP Fit Center   95 is at  -1.805340 -4.196403 -0.593090
      ESP Fit Center   96 is at  -1.401901 -4.091945 -0.593090
      ESP Fit Center   97 is at  -1.027748 -3.908414 -0.593090
      ESP Fit Center   98 is at  -0.698198 -3.653324 -0.593090
      ESP Fit Center   99 is at  -0.426743 -3.337117 -0.593090
      ESP Fit Center  100 is at  -0.224498 -2.972739 -0.593090
      ESP Fit Center  101 is at  -0.099740 -2.575109 -0.593090
      ESP Fit Center  102 is at  -0.177081 -2.160505 -0.987036
      ESP Fit Center  103 is at  -3.206014 -3.766343 -0.987036
      ESP Fit Center  104 is at  -2.835351 -3.962856 -0.987036
      ESP Fit Center  105 is at  -2.431109 -4.075093 -0.987036
      ESP Fit Center  106 is at  -2.012191 -4.097806 -0.987036
      ESP Fit Center  107 is at  -1.598184 -4.029933 -0.987036
      ESP Fit Center  108 is at  -1.208447 -3.874648 -0.987036
      ESP Fit Center  109 is at  -0.861204 -3.639211 -0.987036
      ESP Fit Center  110 is at  -0.572691 -3.334632 -0.987036
      ESP Fit Center  111 is at  -0.356398 -2.975151 -0.987036
      ESP Fit Center  112 is at  -0.222441 -2.577579 -0.987036
      ESP Fit Center  113 is at  -0.371142 -2.160505 -1.350098
      ESP Fit Center  114 is at  -3.424192 -3.318374 -1.350098
      ESP Fit Center  115 is at  -3.109118 -3.597506 -1.350098
      ESP Fit Center  116 is at  -2.736399 -3.793124 -1.350098
      ESP Fit Center  117 is at  -2.327696 -3.893860 -1.350098
      ESP Fit Center  118 is at  -1.906761 -3.893860 -1.350098
      ESP Fit Center  119 is at  -1.498057 -3.793124 -1.350098
      ESP Fit Center  120 is at  -1.125338 -3.597506 -1.350098
      ESP Fit Center  121 is at  -0.810264 -3.318374 -1.350098
      ESP Fit Center  122 is at  -0.571146 -2.971951 -1.350098
      ESP Fit Center  123 is at  -0.421880 -2.578371 -1.350098
      ESP Fit Center  124 is at  -0.632304 -2.160505 -1.668325
      ESP Fit Center  125 is at  -3.602152 -2.160505 -1.668325
      ESP Fit Center  126 is at  -3.542003 -2.578856 -1.668325
      ESP Fit Center  127 is at  -3.366426 -2.963315 -1.668325
      ESP Fit Center  128 is at  -3.089647 -3.282736 -1.668325
      ESP Fit Center  129 is at  -2.734088 -3.511239 -1.668325
      ESP Fit Center  130 is at  -2.328555 -3.630315 -1.668325
      ESP Fit Center  131 is at  -1.905901 -3.630315 -1.668325
      ESP Fit Center  132 is at  -1.500368 -3.511239 -1.668325
      ESP Fit Center  133 is at  -1.144810 -3.282736 -1.668325
      ESP Fit Center  134 is at  -0.868030 -2.963315 -1.668325
      ESP Fit Center  135 is at  -0.692454 -2.578856 -1.668325
      ESP Fit Center  136 is at  -0.950531 -2.160505 -1.929487
      ESP Fit Center  137 is at  -3.109174 -1.546318 -1.929487
      ESP Fit Center  138 is at  -3.264060 -1.946125 -1.929487
      ESP Fit Center  139 is at  -3.264060 -2.374885 -1.929487
      ESP Fit Center  140 is at  -3.109174 -2.774692 -1.929487
      ESP Fit Center  141 is at  -2.820320 -3.091549 -1.929487
      ESP Fit Center  142 is at  -2.436510 -3.282664 -1.929487
      ESP Fit Center  143 is at  -2.009579 -3.322225 -1.929487
      ESP Fit Center  144 is at  -1.597186 -3.204890 -1.929487
      ESP Fit Center  145 is at  -1.255028 -2.946504 -1.929487
      ESP Fit Center  146 is at  -1.029315 -2.581965 -1.929487
      ESP Fit Center  147 is at  -1.313593 -2.160505 -2.123548
      ESP Fit Center  148 is at  -2.813197 -1.758687 -2.123548
      ESP Fit Center  149 is at  -2.920863 -2.160505 -2.123548
      ESP Fit Center  150 is at  -2.813197 -2.562322 -2.123548
      ESP Fit Center  151 is at  -2.519046 -2.856473 -2.123548
      ESP Fit Center  152 is at  -2.117228 -2.964140 -2.123548
      ESP Fit Center  153 is at  -1.715411 -2.856473 -2.123548
      ESP Fit Center  154 is at  -1.421260 -2.562322 -2.123548
      ESP Fit Center  155 is at  -1.707538 -2.160505 -2.243050
      ESP Fit Center  156 is at  -2.526918 -2.160505 -2.243050
      ESP Fit Center  157 is at  -2.322073 -2.515306 -2.243050
      ESP Fit Center  158 is at  -1.912383 -2.515306 -2.243050
      ESP Fit Center  159 is at  -2.117228 -2.160505 -2.283401
      ESP Fit Center  160 is at  -3.090970 -2.308625  1.716956
      ESP Fit Center  161 is at  -3.308378 -1.932064  1.659712
      ESP Fit Center  162 is at  -3.525786 -2.308625  1.659712
      ESP Fit Center  163 is at  -3.308378 -2.685187  1.659712
      ESP Fit Center  164 is at  -3.818431 -1.888625  1.491879
      ESP Fit Center  165 is at  -3.930970 -2.308625  1.491879
      ESP Fit Center  166 is at  -3.818431 -2.728625  1.491879
      ESP Fit Center  167 is at  -3.510970 -3.036087  1.491879
      ESP Fit Center  168 is at  -3.090970 -3.148625  1.491879
      ESP Fit Center  169 is at  -4.100976 -1.683256  1.224896
      ESP Fit Center  170 is at  -4.258682 -2.090342  1.224896
      ESP Fit Center  171 is at  -4.258682 -2.526909  1.224896
      ESP Fit Center  172 is at  -4.100976 -2.933995  1.224896
      ESP Fit Center  173 is at  -3.806863 -3.256622  1.224896
      ESP Fit Center  174 is at  -3.416065 -3.451216  1.224896
      ESP Fit Center  175 is at  -2.981361 -3.491497  1.224896
      ESP Fit Center  176 is at  -4.529642 -2.091781  0.876956
      ESP Fit Center  177 is at  -4.529642 -2.525470  0.876956
      ESP Fit Center  178 is at  -4.401810 -2.939893  0.876956
      ESP Fit Center  179 is at  -4.157504 -3.298224  0.876956
      ESP Fit Center  180 is at  -3.818431 -3.568625  0.876956
      ESP Fit Center  181 is at  -3.414721 -3.727070  0.876956
      ESP Fit Center  182 is at  -2.982243 -3.759480  0.876956
      ESP Fit Center  183 is at  -4.713725 -2.308625  0.471772
      ESP Fit Center  184 is at  -4.658431 -2.728625  0.471772
      ESP Fit Center  185 is at  -4.496317 -3.120003  0.471772
      ESP Fit Center  186 is at  -4.238431 -3.456087  0.471772
      ESP Fit Center  187 is at  -3.902348 -3.713973  0.471772
      ESP Fit Center  188 is at  -3.510970 -3.876087  0.471772
      ESP Fit Center  189 is at  -3.090970 -3.931381  0.471772
      ESP Fit Center  190 is at  -4.757723 -2.519185  0.036956
      ESP Fit Center  191 is at  -4.652994 -2.927075  0.036956
      ESP Fit Center  192 is at  -4.450118 -3.296105  0.036956
      ESP Fit Center  193 is at  -4.161842 -3.603088  0.036956
      ESP Fit Center  194 is at  -3.806279 -3.828735  0.036956
      ESP Fit Center  195 is at  -3.405771 -3.958868  0.036956
      ESP Fit Center  196 is at  -4.658431 -2.728625 -0.397860
      ESP Fit Center  197 is at  -4.496317 -3.120003 -0.397860
      ESP Fit Center  198 is at  -4.238431 -3.456087 -0.397860
      ESP Fit Center  199 is at  -3.902348 -3.713973 -0.397860
      ESP Fit Center  200 is at  -3.510970 -3.876087 -0.397860
      ESP Fit Center  201 is at  -4.529642 -2.525470 -0.803044
      ESP Fit Center  202 is at  -4.401810 -2.939893 -0.803044
      ESP Fit Center  203 is at  -4.157504 -3.298224 -0.803044
      ESP Fit Center  204 is at  -3.818431 -3.568625 -0.803044
      ESP Fit Center  205 is at  -3.414721 -3.727070 -0.803044
      ESP Fit Center  206 is at  -4.258682 -2.526909 -1.150983
      ESP Fit Center  207 is at  -4.100976 -2.933995 -1.150983
      ESP Fit Center  208 is at  -3.806863 -3.256622 -1.150983
      ESP Fit Center  209 is at  -3.930970 -2.308625 -1.417966
      ESP Fit Center  210 is at  -3.818431 -2.728625 -1.417966
      ESP Fit Center  211 is at  -0.364132 -1.918365 -1.450352
      ESP Fit Center  212 is at  -0.698678 -1.882726 -1.768579
      ESP Fit Center  213 is at  -0.861324  0.840400 -1.790799
      ESP Fit Center  214 is at  -0.525240 -1.712409 -1.790799
      ESP Fit Center  215 is at  -0.765572  0.572557 -2.195983
      ESP Fit Center  216 is at  -1.141158  0.789402 -2.195983
      ESP Fit Center  217 is at  -1.563975  0.885907 -2.195983
      ESP Fit Center  218 is at  -1.996452  0.853497 -2.195983
      ESP Fit Center  219 is at  -2.983541 -1.196215 -2.195983
      ESP Fit Center  220 is at  -2.739235 -1.554547 -2.195983
      ESP Fit Center  221 is at  -1.141158 -1.919297 -2.195983
      ESP Fit Center  222 is at  -0.765572 -1.702452 -2.195983
      ESP Fit Center  223 is at  -0.470588 -1.384535 -2.195983
      ESP Fit Center  224 is at  -0.794803  0.235362 -2.543922
      ESP Fit Center  225 is at  -1.143191  0.498452 -2.543922
      ESP Fit Center  226 is at  -1.563092  0.617924 -2.543922
      ESP Fit Center  227 is at  -1.997796  0.577643 -2.543922
      ESP Fit Center  228 is at  -2.388595  0.383048 -2.543922
      ESP Fit Center  229 is at  -2.840414 -0.346665 -2.543922
      ESP Fit Center  230 is at  -2.840414 -0.783231 -2.543922
      ESP Fit Center  231 is at  -2.682708 -1.190317 -2.543922
      ESP Fit Center  232 is at  -2.388595 -1.512944 -2.543922
      ESP Fit Center  233 is at  -1.997796 -1.707538 -2.543922
      ESP Fit Center  234 is at  -1.563092 -1.747820 -2.543922
      ESP Fit Center  235 is at  -1.143191 -1.628348 -2.543922
      ESP Fit Center  236 is at  -0.794803 -1.365257 -2.543922
      ESP Fit Center  237 is at  -0.564981 -0.994081 -2.543922
      ESP Fit Center  238 is at  -0.832701 -0.564948 -2.810905
      ESP Fit Center  239 is at  -0.945240 -0.144948 -2.810905
      ESP Fit Center  240 is at  -1.252701  0.162514 -2.810905
      ESP Fit Center  241 is at  -1.672701  0.275052 -2.810905
      ESP Fit Center  242 is at  -2.092701  0.162514 -2.810905
      ESP Fit Center  243 is at  -2.400163 -0.144948 -2.810905
      ESP Fit Center  244 is at  -2.512701 -0.564948 -2.810905
      ESP Fit Center  245 is at  -2.400163 -0.984948 -2.810905
      ESP Fit Center  246 is at  -2.092701 -1.292409 -2.810905
      ESP Fit Center  247 is at  -1.672701 -1.404948 -2.810905
      ESP Fit Center  248 is at  -1.252701 -1.292409 -2.810905
      ESP Fit Center  249 is at  -0.945240 -0.984948 -2.810905
      ESP Fit Center  250 is at  -1.237885 -0.564948 -2.978738
      ESP Fit Center  251 is at  -1.455293 -0.188386 -2.978738
      ESP Fit Center  252 is at  -1.890109 -0.188386 -2.978738
      ESP Fit Center  253 is at  -2.107517 -0.564948 -2.978738
      ESP Fit Center  254 is at  -1.890109 -0.941510 -2.978738
      ESP Fit Center  255 is at  -1.455293 -0.941510 -2.978738
      ESP Fit Center  256 is at  -1.672701 -0.564948 -3.035983
      ESP Fit Center  257 is at  -4.069919  1.380172  1.399986
      ESP Fit Center  258 is at  -3.064739 -0.035164  2.929564
      ESP Fit Center  259 is at  -2.629923 -0.035164  2.872319
      ESP Fit Center  260 is at  -2.847331  0.341397  2.872319
      ESP Fit Center  261 is at  -3.282147  0.341397  2.872319
      ESP Fit Center  262 is at  -3.499555 -0.035164  2.872319
      ESP Fit Center  263 is at  -3.282147 -0.411726  2.872319
      ESP Fit Center  264 is at  -2.847331 -0.411726  2.872319
      ESP Fit Center  265 is at  -2.224739 -0.035164  2.704487
      ESP Fit Center  266 is at  -2.337278  0.384836  2.704487
      ESP Fit Center  267 is at  -2.644739  0.692297  2.704487
      ESP Fit Center  268 is at  -3.064739  0.804836  2.704487
      ESP Fit Center  269 is at  -3.484739  0.692297  2.704487
      ESP Fit Center  270 is at  -3.792201  0.384836  2.704487
      ESP Fit Center  271 is at  -3.904739 -0.035164  2.704487
      ESP Fit Center  272 is at  -3.792201 -0.455164  2.704487
      ESP Fit Center  273 is at  -3.484739 -0.762626  2.704487
      ESP Fit Center  274 is at  -3.064739 -0.875164  2.704487
      ESP Fit Center  275 is at  -2.644739 -0.762626  2.704487
      ESP Fit Center  276 is at  -2.337278 -0.455164  2.704487
      ESP Fit Center  277 is at  -1.957019  0.393969  2.437503
      ESP Fit Center  278 is at  -2.186842  0.765145  2.437503
      ESP Fit Center  279 is at  -2.535229  1.028235  2.437503
      ESP Fit Center  280 is at  -2.955130  1.147708  2.437503
      ESP Fit Center  281 is at  -3.389834  1.107426  2.437503
      ESP Fit Center  282 is at  -3.780633  0.912832  2.437503
      ESP Fit Center  283 is at  -4.074746  0.590205  2.437503
      ESP Fit Center  284 is at  -4.232452  0.183119  2.437503
      ESP Fit Center  285 is at  -4.232452 -0.253448  2.437503
      ESP Fit Center  286 is at  -4.074746 -0.660534  2.437503
      ESP Fit Center  287 is at  -3.780633 -0.983160  2.437503
      ESP Fit Center  288 is at  -3.389834 -1.177755  2.437503
      ESP Fit Center  289 is at  -2.955130 -1.218036  2.437503
      ESP Fit Center  290 is at  -2.535229 -1.098564  2.437503
      ESP Fit Center  291 is at  -2.186842 -0.835474  2.437503
      ESP Fit Center  292 is at  -1.862626  0.784423  2.089564
      ESP Fit Center  293 is at  -3.388490  1.383280  2.089564
      ESP Fit Center  294 is at  -3.792201  1.224836  2.089564
      ESP Fit Center  295 is at  -4.131273  0.954434  2.089564
      ESP Fit Center  296 is at  -4.375579  0.596103  2.089564
      ESP Fit Center  297 is at  -4.503412  0.181681  2.089564
      ESP Fit Center  298 is at  -4.503412 -0.252009  2.089564
      ESP Fit Center  299 is at  -4.375579 -0.666432  2.089564
      ESP Fit Center  300 is at  -4.131273 -1.024763  2.089564
      ESP Fit Center  301 is at  -3.792201 -1.295164  2.089564
      ESP Fit Center  302 is at  -3.388490 -1.453609  2.089564
      ESP Fit Center  303 is at  -2.956013 -1.486019  2.089564
      ESP Fit Center  304 is at  -2.533196 -1.389514  2.089564
      ESP Fit Center  305 is at  -2.157610 -1.172669  2.089564
      ESP Fit Center  306 is at  -3.876117  1.370183  1.684380
      ESP Fit Center  307 is at  -4.212201  1.112297  1.684380
      ESP Fit Center  308 is at  -4.470087  0.776213  1.684380
      ESP Fit Center  309 is at  -4.632201  0.384836  1.684380
      ESP Fit Center  310 is at  -4.687495 -0.035164  1.684380
      ESP Fit Center  311 is at  -4.632201 -0.455164  1.684380
      ESP Fit Center  312 is at  -4.470087 -0.846542  1.684380
      ESP Fit Center  313 is at  -4.212201 -1.182626  1.684380
      ESP Fit Center  314 is at  -3.876117 -1.440512  1.684380
      ESP Fit Center  315 is at  -3.484739 -1.602626  1.684380
      ESP Fit Center  316 is at  -3.064739 -1.657920  1.684380
[...]
 0.00000796,-0.00002989,-0.00001984,-0.00193394,0.00043012,-0.00103544,
 0.00052582,0.00028326,-0.00027186,0.00052021,-0.00136310,0.00229428,-0
 .00018142,-0.00031754,-0.00008326,-0.01325388,-0.18214339,0.13729220,0
 .01425534,0.20037132,0.00032634,0.00016254,0.00025422,-0.00002817,-0.0
 0000209,-0.00006075,-0.00012133,0.00023725,-0.00010128,-0.00002151,-0.
 00002797,0.00005943,0.00004974,0.00011046,0.00014880,-0.00000336,-0.00
 000911,-0.00001017,-0.00001356,-0.00000870,0.00001034,-0.00000993,0.00
 000340,0.00001010,0.00000764,-0.00000232,0.00000459,0.00000577,0.00000
 792,-0.00000332,0.00001152,0.00003443,-0.00007050,0.00000056,-0.000003
 16,0.00000622,-0.00000259,-0.00000621,0.00000553,0.00002129,0.00001814
 ,-0.00000031,-0.00007696,-0.00056876,0.00149625,0.00024296,-0.00010975
 ,0.00042150,0.00072110,0.00470273,-0.00513553,0.00022583,-0.00045754,0
 .00095885,0.01509898,0.13455895,-0.17130010,-0.01371622,-0.14150357,0.
 19072668,0.00107450,-0.00036356,0.00003333,-0.00035174,-0.00055179,-0.
 00009361,-0.00075496,0.00062532,0.00066779,0.00019625,-0.00006501,-0.0
 0018142,0.00015636,-0.00041747,0.00015842,-0.00000673,-0.00001316,0.00
 002898,0.00003688,0.00020552,-0.00012637,-0.00005390,-0.00003004,0.000
 09213,0.00000027,-0.00003286,0.00003135,0.00009368,0.00003735,-0.00012
 644,-0.00007666,0.00010726,-0.00008073,0.00001223,-0.00004765,0.000019
 06,-0.00005206,-0.00016114,-0.00002559,0.00009540,0.00008057,-0.000094
 32,0.00030888,-0.00177878,0.00108063,-0.00601980,-0.00225553,-0.000363
 98,-0.02596701,-0.00576398,-0.02104006,-0.00117086,-0.00237041,0.00096
 456,-0.07562856,0.00263465,-0.02486058,-0.00227477,-0.00232648,-0.0031
 7131,0.44023374,-0.00044617,0.00055001,-0.00030021,0.00026611,0.000210
 12,-0.00000255,-0.00021429,0.00035445,0.00041820,0.00003009,0.00003327
 ,0.00003412,-0.00005165,-0.00003581,0.00016130,-0.00001439,-0.00008586
 ,-0.00000728,0.00000849,0.00007022,-0.00002954,-0.00006814,0.00004342,
 0.00006946,0.00004301,-0.00002037,0.00003046,0.00004401,0.00002146,-0.
 00005335,0.00002359,0.00001153,-0.00010525,0.00002568,-0.00001330,0.00
 002099,-0.00003660,-0.00004131,0.00000261,0.00004940,0.00005811,-0.000
 02425,-0.00322518,-0.00126664,-0.00102107,0.00151512,0.00075686,0.0001
 9111,-0.00145776,-0.00165905,-0.00319028,0.00060655,0.00042991,-0.0004
 7119,-0.01192267,-0.07199455,-0.01557969,0.01131596,0.00688446,0.02176
 279,-0.07757458,0.62396107,-0.00015384,-0.00011910,-0.00037180,-0.0000
 0202,-0.00002266,-0.00017093,-0.00005236,0.00011962,-0.00121387,-0.000
 02120,-0.00007062,-0.00013114,0.00017732,-0.00020180,0.00037755,0.0000
 2751,0.00007947,-0.00002267,0.00005820,0.00018481,-0.00001969,-0.00004
 742,-0.00003066,0.00001713,-0.00000244,-0.00001530,0.00002063,0.000056
 63,-0.00000326,-0.00009537,-0.00003377,0.00012044,-0.00015752,-0.00000
 316,-0.00003550,0.00001114,-0.00003743,-0.00010900,-0.00002811,0.00008
 075,0.00008001,-0.00003092,0.00433141,-0.00126339,0.00664670,-0.004497
 27,-0.00030971,-0.00317116,0.00598729,0.00361626,0.01165787,0.00436189
 ,0.00144563,-0.00063578,-0.03639250,-0.00971918,-0.13980407,-0.0163505
 1,-0.00750216,-0.02426486,-0.03557106,-0.05781665,0.52376856,-0.000181
 25,-0.00008570,-0.00008059,-0.00000479,0.00003928,0.00000844,0.0001570
 3,-0.00021569,-0.00023031,-0.00001720,0.00003175,0.00003130,-0.0000108
 3,0.00005634,0.00001851,-0.00000263,-0.00000390,-0.00000723,-0.0000092
 6,-0.00002876,0.00001122,0.00000118,0.00000270,0.00001022,-0.00000320,
 0.00000086,-0.00000266,-0.00000428,0.00000670,0.00001436,0.00001264,-0
 .00001606,-0.00000249,-0.00000094,0.00000517,-0.00000155,0.00000550,0.
 00002727,0.00000859,-0.00000866,-0.00000120,0.00001388,-0.00020051,-0.
 00050925,-0.00018515,0.00033236,0.00005295,-0.00013833,0.00135393,0.00
 076066,0.00052953,0.00027301,0.00012417,-0.00001528,0.00658182,-0.0145
 2897,-0.01340298,0.00042048,0.00038514,0.00061694,-0.10241969,0.089055
 48,0.05651162,0.12355631,0.00008789,-0.00005605,-0.00009679,0.00000984
 ,0.00006360,0.00002223,0.00024336,0.00009662,0.00015276,-0.00005835,0.
 00001165,0.00003396,-0.00000069,0.00006324,-0.00003183,-0.00000869,-0.
 00000140,-0.00000714,-0.00003282,-0.00004758,0.00000006,0.00000937,-0.
 00000392,0.00001120,-0.00000796,0.00000410,-0.00000260,-0.00000658,0.0
 0001059,0.00002061,0.00000632,-0.00001300,0.00000820,-0.00000370,0.000
 00634,-0.00000271,0.00000746,0.00003083,0.00001677,-0.00000943,-0.0000
 0942,0.00000861,-0.00111891,-0.00104744,-0.00075781,0.00003170,0.00077
 365,0.00088204,-0.00008781,0.00115971,0.00080289,-0.00003733,-0.000088
 45,0.00010919,0.00665412,-0.00727884,-0.00513181,-0.00028684,0.0008217
 9,-0.00005829,0.09143516,-0.20085333,-0.08920351,-0.09584248,0.2078046
 6,-0.00016341,0.00009556,-0.00006933,0.00005565,0.00012508,0.00004338,
 0.00011690,0.00000689,-0.00002791,-0.00009621,0.00001747,0.00003365,-0
 .00003765,0.00012019,-0.00001342,-0.00000417,-0.00000021,-0.00000682,-
 0.00000635,-0.00004800,0.00002550,0.00001166,0.00000366,0.00000213,-0.
 00000919,0.00000278,-0.00000810,-0.00001378,0.00000656,0.00002447,0.00
 002466,-0.00002381,-0.00000489,-0.00000311,0.00000859,-0.00000130,0.00
 000751,0.00003922,0.00001276,-0.00001287,-0.00000819,0.00001856,-0.000
 94374,-0.00133419,0.00030468,0.00033379,-0.00016153,0.00000988,0.00150
 110,0.00226791,0.00129278,0.00009379,0.00008033,-0.00008423,0.00818827
 ,-0.02524089,-0.01784195,0.00100976,0.00056629,0.00133709,0.05591309,-
 0.08563188,-0.10863307,-0.06378368,0.09950208,0.11771272,0.00046423,-0
 .00010288,0.00013537,-0.00004464,-0.00002856,-0.00001238,0.00003238,0.
 00017274,0.00065495,0.00005062,0.00003650,0.00011686,-0.00007624,-0.00
 002153,0.00001645,-0.00001411,-0.00004732,-0.00000469,-0.00002572,-0.0
 0001915,-0.00002228,-0.00002710,0.00002664,0.00005456,0.00001809,-0.00
 000214,0.00001019,0.00001933,0.00001829,-0.00000190,0.00000954,-0.0000
 1237,-0.00002550,0.00000598,0.00000334,0.00000791,-0.00000228,0.000010
 98,0.00001818,0.00000951,0.00001210,-0.00000483,-0.00293162,0.00140140
 ,-0.00469835,0.00181680,-0.00161949,0.00286444,0.00025917,-0.00162859,
 0.00156882,-0.00009867,-0.00003044,0.00013644,-0.00083627,0.01313870,-
 0.01388051,-0.00136561,-0.00157477,-0.00257722,-0.05310860,0.04597847,
 -0.03219005,-0.00012992,0.01216092,-0.00987091,0.06861712,-0.00000478,
 0.00002194,0.00000882,0.00000279,-0.00001947,-0.00001248,-0.00019780,0
 .00000130,-0.00003070,0.00000714,-0.00001892,-0.00000064,-0.00002425,-
 0.00000765,0.00000827,0.00000849,-0.00000323,0.00000427,0.00001094,0.0
 0001647,-0.00000240,-0.00000376,0.00000340,0.00000645,0.00000295,-0.00
 000546,0.00000021,0.00000453,0.00000091,-0.00000846,0.00000098,-0.0000
 0147,-0.00001173,0.00000558,-0.00000413,0.00000331,-0.00000562,-0.0000
 0850,-0.00000475,0.00000511,0.00000707,-0.00000273,-0.00020006,0.00048
 339,-0.00072102,-0.00197938,-0.00264876,0.00076051,0.00062441,0.000071
 58,0.00105553,-0.00008140,0.00014469,0.00005332,-0.00388929,0.00815587
 ,-0.01201832,-0.00166893,0.00012716,-0.00298177,0.04017029,-0.22482274
 ,0.13867697,0.00455147,-0.01691281,0.01573882,-0.03243763,0.23905759,0
 .00001027,0.00010134,0.00015218,0.00000153,-0.00004055,0.00000036,-0.0
 0018297,-0.00004150,0.00005025,0.00006100,-0.00001936,-0.00000025,-0.0
 0000973,-0.00005257,0.00000955,-0.00000001,-0.00001874,0.00001205,0.00
 001749,0.00002426,-0.00001511,-0.00000491,0.00000280,0.00002403,0.0000
 0259,-0.00000393,-0.00000109,0.00001581,0.00000554,-0.00001147,-0.0000
 0056,-0.00000141,-0.00000130,0.00000512,-0.00000075,0.00000158,-0.0000
 0626,-0.00001497,-0.00000621,0.00000682,0.00000791,-0.00000696,-0.0011
 3553,0.00082849,-0.00126964,0.00324626,0.00084224,-0.00077668,-0.00055
 479,-0.00089892,-0.00002446,-0.00018779,-0.00007617,0.00008202,-0.0071
 5703,0.01722654,-0.01880301,-0.00242862,-0.00132540,-0.00265166,-0.027
 37616,0.13415751,-0.16255376,0.00364375,-0.01397192,0.01118247,0.02896
 212,-0.14660940,0.17825254,-0.00085920,-0.00032952,-0.00049937,0.00019
 464,0.00021767,0.00021882,0.00048304,-0.00014141,0.00037193,-0.0000878
 8,0.00006918,0.00000743,-0.00009718,0.00022103,-0.00040793,0.00000858,
 0.00003263,0.00001943,-0.00000053,-0.00014242,0.00008010,0.00007434,0.
 00000169,-0.00013971,-0.00001095,0.00003777,-0.00003857,-0.00009913,-0
 .00006161,0.00011468,0.00002975,-0.00012334,0.00018657,-0.00001700,0.0
 0004309,-0.00002582,0.00005253,0.00010788,-0.00001168,-0.00010971,-0.0
 0011263,0.00006369,0.00001408,0.00190948,-0.00157993,0.00030456,-0.000
 91595,0.00126760,-0.00178383,-0.00320310,-0.00714073,-0.00146682,-0.00
 142804,0.00075459,-0.04191829,-0.01272958,0.00605927,0.00204307,0.0014
 7463,0.00315643,-0.17426710,-0.00451062,0.03753687,-0.02927073,-0.0120
 5777,0.01037410,-0.00652459,-0.00394689,0.00258568,0.29119443,-0.00061
 410,-0.00025352,-0.00037606,0.00005523,0.00012115,0.00014022,0.0004712
 2,-0.00011548,-0.00007943,-0.00012892,0.00007442,-0.00002978,-0.000011
 24,0.00019944,-0.00019156,-0.00000150,0.00004301,0.00000416,-0.0000204
 2,-0.00011228,0.00006086,0.00006020,-0.00001327,-0.00007916,-0.0000246
 1,0.00002288,-0.00002842,-0.00006350,-0.00002569,0.00007763,0.00002357
 ,-0.00005850,0.00009018,-0.00001678,0.00002464,-0.00001877,0.00003527,
 0.00008599,0.00000548,-0.00006241,-0.00006559,0.00004626,0.00070179,-0
 .00051266,0.00119494,-0.00259444,-0.00115055,0.00065296,0.00056446,0.0
 0157745,-0.00334822,-0.00060556,-0.00047207,0.00047595,-0.01633403,-0.
 00250291,0.00540353,0.00132987,0.00143455,-0.00078300,-0.05532421,-0.1
 0005353,0.03222725,0.01664299,0.01181134,-0.00444209,-0.03361761,-0.00
 765727,0.00932676,0.04413908,0.48995601,0.00020548,-0.00019871,-0.0001
 6862,-0.00008103,-0.00001333,0.00006178,0.00033494,0.00024360,0.001075
 69,-0.00007480,0.00003047,0.00007733,-0.00013742,0.00016109,-0.0002328
 6,-0.00001097,-0.00004123,0.00000088,-0.00005232,-0.00011958,0.0000136
 0,0.00002293,0.00002430,0.00000858,0.00000032,0.00000787,-0.00000794,-
 0.00003105,0.00000969,0.00005667,0.00002920,-0.00007032,0.00006736,0.0
 0000329,0.00002013,-0.00000453,0.00001867,0.00007923,0.00002657,-0.000
 04025,-0.00004292,0.00001900,-0.00328816,0.00007451,-0.00369261,0.0034
 1448,0.00102428,0.00192630,-0.00287889,-0.00236658,-0.00158937,-0.0005
 2682,-0.00051681,0.00014520,-0.01520180,-0.00125573,0.00990490,0.00099
 043,-0.00109215,0.00351488,0.05092708,0.01844125,-0.07592596,0.0193742
 2,0.00831771,-0.00259519,0.02334411,0.00533660,-0.00413286,-0.06464254
 ,-0.19661579,0.13949659,0.00007051,0.00008513,-0.00000312,0.00000551,-
 0.00003080,-0.00003750,-0.00009876,0.00006033,-0.00009967,0.00003182,-
 0.00000898,-0.00004329,0.00004430,-0.00008441,0.00007481,-0.00000211,0
 .00000165,0.00000088,0.00000928,0.00004863,-0.00002083,-0.00001149,-0.
 00000693,0.00002043,-0.00000188,-0.00000947,0.00000784,0.00002043,0.00
 000977,-0.00003222,-0.00001411,0.00002999,-0.00003288,0.00000373,-0.00
 001310,0.00000437,-0.00001519,-0.00003566,-0.00000389,0.00002533,0.000
 02445,-0.00001929,0.00069347,-0.00043427,0.00116163,-0.00100868,-0.000
 20471,-0.00036866,0.00050782,0.00109523,-0.00061338,-0.00003510,-0.000
 02128,-0.00004235,-0.00038653,-0.00137198,0.00211125,-0.00060169,0.000
 30413,-0.00141888,-0.00853804,-0.04308345,0.01948364,0.00183073,0.0003
 5825,-0.00003184,-0.00537423,-0.00086101,0.00096382,-0.03837436,0.0454
 6308,-0.01140940,0.05091941,0.00016775,-0.00000837,-0.00004917,-0.0000
 2315,-0.00002813,-0.00002921,-0.00002776,0.00017128,0.00000760,0.00000
 174,-0.00001234,-0.00002901,0.00003504,-0.00005361,0.00006106,-0.00000
 118,0.00000349,-0.00000018,0.00000826,0.00003725,-0.00001346,-0.000012
 26,-0.00000600,0.00001293,0.00000087,-0.00000445,0.00000631,0.00001550
 ,0.00000501,-0.00002212,-0.00000858,0.00002331,-0.00002992,0.00000047,
 -0.00000772,0.00000437,-0.00000833,-0.00002680,-0.00000405,0.00001913,
 0.00001770,-0.00001238,0.00028377,-0.00050665,0.00086962,-0.00060433,-
 0.00001551,-0.00036477,0.00050836,0.00083009,-0.00022196,0.00009836,0.
 00009731,-0.00002582,-0.00007098,-0.00109259,-0.00008494,-0.00117395,-
 0.00017713,-0.00083906,0.01259499,-0.01054118,0.00268073,0.00076587,0.
 00295591,-0.00066976,-0.00247888,0.00248043,-0.00087066,-0.00885208,-0
 .39321900,0.16907838,-0.00148184,0.39899633,0.00000225,0.00002898,-0.0
 0001759,0.00000836,-0.00001204,-0.00000840,-0.00005772,0.00003064,-0.0
 0001350,0.00004897,0.00000847,-0.00000994,0.00001633,-0.00006198,0.000
 05563,-0.00000166,-0.00000931,0.00000186,0.00001412,0.00003673,-0.0000
 1234,-0.00001868,0.00000110,0.00001165,0.00000803,-0.00000383,0.000007
 67,0.00001524,0.00000258,-0.00002059,-0.00000403,0.00001503,-0.0000238
 6,0.00000193,-0.00000534,0.00000512,-0.00000750,-0.00002620,-0.0000081
 0,0.00001473,0.00001712,-0.00001028,0.00030877,0.00019584,0.00022556,0
 .00022600,0.00011551,-0.00019313,-0.00016753,0.00001385,-0.00109888,-0
 .00019299,-0.00000202,0.00004919,-0.00187423,-0.00193100,0.00251981,-0
 .00068446,0.00041800,-0.00022915,-0.00347842,0.01481749,-0.00975571,-0
 .00078414,0.00006108,0.00008926,0.00494584,0.00070589,0.00026732,0.010
 83659,0.15472314,-0.06942674,-0.00970321,-0.16904494,0.07796147,-0.000
 99198,-0.00321131,0.00199406,-0.00610503,-0.00203526,0.00158511,0.0005
 3621,-0.00231474,-0.00443609,-0.00205320,-0.00002340,0.00159398,-0.001
 29765,0.00426087,-0.00040952,-0.00001051,-0.00020995,-0.00006697,-0.00
 043595,-0.00177702,0.00092532,0.00022866,0.00020515,-0.00011962,0.0000
 1015,0.00010748,-0.00019129,-0.00044892,0.00014037,0.00081359,0.000690
 41,-0.00068340,-0.00004346,-0.00006193,0.00025942,-0.00000749,0.000365
 87,0.00136726,0.00040820,-0.00048931,-0.00024394,0.00063631,-0.0231216
 8,-0.00470751,-0.00390083,0.01495334,-0.00111351,0.00580106,-0.0353976
 9,0.02557670,0.01972946,-0.00142160,-0.00008027,0.00111700,-0.04070785
 ,-0.00208494,-0.00707770,0.00100339,-0.00096577,0.00069528,0.01024716,
 -0.00911856,-0.00284517,-0.00286723,-0.00241257,-0.00385245,-0.0013036
 8,0.00003451,0.00015882,0.00039338,-0.00064453,-0.00155622,0.00072590,
 0.00052752,0.00080276,0.26084682,-0.00361764,0.00723733,-0.00290034,-0
 .00005333,0.00131592,0.00298064,-0.00134071,0.00496740,0.00734687,-0.0
 0286932,-0.00037559,0.00128086,-0.00216229,0.00387492,-0.00156249,0.00
 008360,-0.00020384,0.00001995,-0.00031826,-0.00145998,0.00073253,0.000
 18996,0.00016140,-0.00013622,0.00002862,0.00007746,-0.00016765,-0.0003
 8396,0.00010861,0.00071046,0.00064329,-0.00066730,0.00020548,0.0000247
 1,0.00021580,0.00000839,0.00019575,0.00096528,0.00013277,-0.00037408,-
 0.00032929,0.00039407,-0.03128656,-0.01984331,0.00422101,0.01322702,0.
 00048675,0.00300381,0.05439846,0.00206980,-0.02932408,-0.00071611,-0.0
 0139899,-0.00063031,-0.00718625,-0.04575999,0.01539908,0.00950672,-0.0
 2683997,-0.01319395,-0.00625526,-0.02169280,-0.01435349,0.00015594,0.0
 0041367,-0.00036392,0.00075756,0.00165929,0.00197471,0.00204829,0.0001
 5103,-0.00273867,0.00005037,-0.00003469,0.00014845,0.26848494,0.736705
 75,0.00136009,0.00574133,0.00733452,0.00019578,0.00016570,0.00056021,-
 0.00356463,-0.00279180,0.00165796,-0.00022021,0.00031903,-0.00025485,-
 0.00029037,0.00063584,0.00001025,0.00003505,0.00003261,0.00000781,-0.0
 0002622,-0.00023460,0.00011216,0.00002106,-0.00003396,-0.00005054,-0.0
 0004000,0.00001867,-0.00001047,-0.00003181,0.00006271,0.00006387,-0.00
 001416,0.00019658,0.00019894,-0.00005074,-0.00001162,0.00000072,0.0000
 4405,-0.00014292,-0.00009206,0.00001406,-0.00005742,-0.00009639,0.0044
 2790,-0.00755987,0.00189182,-0.00332515,0.00128930,0.00030825,0.031340
 11,-0.00964780,-0.00763713,-0.00086513,0.00139440,0.00028409,-0.012124
 18,0.00774205,-0.05658385,-0.00814628,0.01352381,0.00873030,0.00977137
 ,-0.02833652,-0.01600590,-0.00276920,-0.00083457,-0.00334910,0.0007464
 1,-0.00006174,0.00062069,0.00080341,0.00186475,0.00210035,-0.00013978,
 -0.00064118,-0.00053396,0.03289547,0.13419393,0.11738641,-0.00468529,-
 0.00722010,-0.00101866,-0.00167478,0.00083583,-0.00329077,0.00281268,0
 .00700395,0.00365984,0.00167289,-0.00033109,-0.00095191,0.00142803,-0.
 00431581,-0.00023393,-0.00002200,0.00020537,0.00007567,0.00040234,0.00
 180377,-0.00085027,-0.00018888,-0.00017172,0.00003967,0.00003439,-0.00
 009155,0.00015946,0.00038696,-0.00022600,-0.00075275,-0.00060078,0.000
 32418,-0.00009413,0.00008868,-0.00020307,0.00002773,-0.00044308,-0.001
 11640,-0.00020853,0.00036792,0.00020598,-0.00046814,0.01586362,0.01535
 978,0.00133883,-0.00986565,-0.00099581,-0.00352209,-0.01559994,0.00033
 559,0.01043426,0.00061574,0.00181492,0.00058710,0.01037685,-0.00852775
 ,-0.00039027,-0.00002437,0.00244771,-0.00001936,-0.00176486,0.00276211
 ,-0.00041294,0.00060614,0.00096756,0.00119909,0.00056052,-0.00012840,-
 0.00063671,0.00009493,0.00057710,0.00126650,-0.00042609,-0.00028431,-0
 .00027536,-0.17328709,-0.29323145,-0.05004690,0.17327114,0.00069933,-0
 .01466624,0.00086641,-0.00644482,-0.00244503,-0.00377900,0.00250594,-0
 .00096215,0.00074436,0.00195239,0.00014059,-0.00160321,0.00133867,-0.0
 0244549,0.00052224,-0.00010543,0.00007619,-0.00003245,0.00024415,0.000
 99146,-0.00056618,-0.00016176,-0.00008946,0.00016261,-0.00006663,-0.00
 003204,0.00013802,0.00027277,-0.00002323,-0.00050700,-0.00034931,0.000
 46500,-0.00020749,-0.00007249,-0.00012873,0.00003263,-0.00014127,-0.00
 070989,-0.00006435,0.00031888,0.00021223,-0.00036107,0.01372003,0.0092
 1349,0.00256685,-0.00755197,0.00063518,-0.00434720,-0.01867091,-0.0080
 1955,0.00650567,-0.00004791,0.00107425,-0.00032538,-0.00485752,-0.0565
 5198,-0.02361603,0.00027451,-0.00038125,-0.00104339,0.00744081,-0.0003
 0442,0.00154480,-0.00143272,0.00028452,-0.00065696,-0.00009628,-0.0001
 2066,-0.00055186,-0.00174743,0.00071041,0.00222272,0.00011686,0.000116
 07,-0.00024326,-0.26933755,-0.64180468,-0.11682669,0.28219964,0.714765
 43,-0.00846687,-0.00600167,-0.01017391,0.00267544,0.00035695,0.0000941
 5,0.00469764,0.00331865,0.00001182,0.00008868,-0.00020194,-0.00015375,
 0.00019193,-0.00065846,-0.00017368,-0.00004132,-0.00005777,0.00004168,
 0.00006482,0.00030739,-0.00015459,-0.00001600,0.00002797,0.00006151,0.
 00003154,-0.00003218,0.00001057,0.00003364,-0.00007354,-0.00006426,0.0
 0005921,-0.00024798,-0.00021627,0.00007416,0.00000450,-0.00000956,-0.0
 0003144,0.00019423,0.00004491,-0.00000919,0.00005192,0.00009606,-0.003
 07379,-0.00100909,0.00150549,0.00281257,-0.00092706,-0.00120646,-0.002
 09515,-0.00188575,-0.00249278,-0.00013903,-0.00059977,-0.00052637,0.00
 371025,-0.02437313,0.01477488,0.00223820,-0.00288559,-0.00385716,-0.00
 309774,0.00246242,0.00049274,0.00061098,0.00014961,0.00054599,-0.00029
 405,0.00010718,-0.00040060,0.00004905,-0.00030180,-0.00071901,0.000191
 50,0.00023159,0.00016764,-0.04464960,-0.10738191,-0.05665412,0.0443845
 6,0.13942523,0.05895507\\0.00000840,-0.00000905,-0.00001240,-0.0000031
 5,0.00000705,-0.00000252,-0.00001531,0.00000610,0.00001505,-0.00000104
 ,-0.00000057,0.00000452,0.00000942,0.00001195,-0.00000013,-0.00000009,
 -0.00000302,0.00000025,0.00000219,-0.00000747,0.00000043,-0.00000300,0
 .00000152,0.00000082,-0.00000095,0.00000346,0.00000173,-0.00000018,0.0
 0000176,-0.00000087,-0.00000140,-0.00000585,-0.00000469,-0.00000206,0.
 00000093,0.00000245,0.,0.00000152,0.00000243,-0.00000105,-0.00000134,-
 0.00000125,0.00000342,-0.00004188,0.00003151,-0.00000248,0.00000790,0.
 00000295,-0.00002430,0.00001407,-0.00005391,0.00000365,0.00000556,0.00
 001034,0.00002967,-0.00000244,-0.00000163,0.00000299,-0.00000186,-0.00
 000359,-0.00005082,-0.00000062,0.00002045,0.00000955,-0.00000310,-0.00
 000560,0.00000745,-0.00000434,-0.00000317,0.00003484,0.00000095,-0.000
 01474,-0.00000501,0.00000304,0.00000011,0.00000950,0.00001899,0.000007
 28,-0.00001026,-0.00000329,0.00000417\\\@


     "IF I COULD JUST GET IT ON PAPER"
 LIFE AND INK, THEY RUN OUT AT THE SAME TIME,
 OR SO SAID MY OLD FRIEND THE SQUID.
     -- JIMMY BUFFETT, 1981
 Job cpu time:       0 days  0 hours 26 minutes 47.5 seconds.
 Elapsed time:       0 days  0 hours  2 minutes 15.0 seconds.
 File lengths (MBytes):  RWF=    127 Int=      0 D2E=      0 Chk=      4 Scr=      2
 Normal termination of Gaussian 16 at Sat May  8 22:21:41 2021.
