
Host: aaojha

Timers On : Fri May 14 10:27:45 2021
Timers Off: Fri May 14 10:27:46 2021

Wall Time:        0.27 seconds

                                                       Time (seconds)
Module                                       User      System        Wall        Calls

--------------------------------------------------------------------------------------

**************************************************************************************
