
    -----------------------------------------------------------------------
          Psi4: An Open-Source Ab Initio Electronic Structure Package
                               Psi4 1.3.2 release

                         Git: Rev {HEAD} ecbda83 


    R. M. Parrish, L. A. Burns, D. G. A. Smith, A. C. Simmonett,
    A. E. DePrince III, E. G. Hohenstein, U. Bozkaya, A. Yu. Sokolov,
    R. Di Remigio, R. M. Richard, J. F. Gonthier, A. M. James,
    H. R. McAlexander, A. Kumar, M. Saitow, X. Wang, B. P. Pritchard,
    P. Verma, H. F. Schaefer III, K. Patkowski, R. A. King, E. F. Valeev,
    F. A. Evangelista, J. M. Turney, T. D. Crawford, and C. D. Sherrill,
    J. Chem. Theory Comput. 13(7) pp 3185--3197 (2017).
    (doi: 10.1021/acs.jctc.7b00174)


                         Additional Contributions by
    P. Kraus, H. Kruse, M. H. Lechner, M. C. Schieber, R. A. Shaw,
    A. Alenaizan, R. Galvelis, Z. L. Glick, S. Lehtola, and J. P. Misiewicz

    -----------------------------------------------------------------------


    Psi4 started on: Friday, 14 May 2021 10:27AM

    Process ID: 30686
    Host:       aaojha
    PSIDATADIR: /home/aaojha/anaconda3/envs/torsiondrive/share/psi4
    Memory:     500.0 MiB
    Threads:    1
    
  ==> Input File <==

--------------------------------------------------------------------------
memory 50 GB
molecule {
1 1
C           0.1507971    -0.0297132    -0.0035504
C          -0.5837329    -0.6311985     1.0777159
C          -2.0004604    -0.6117104     1.0688519
C          -2.7024216     0.0128508    -0.0044555
C          -1.9814338     0.6200432    -1.0749882
C          -0.5645642     0.6025497    -1.0801324
C           1.6580318    -0.0246551     0.0117981
N           2.3819214     0.2610860    -1.1325831
N           2.3598102    -0.2698021     1.1786069
H          -0.0589532    -1.1498165     1.9033087
H          -2.5605110    -1.0878684     1.8971187
H          -3.8109955     0.0278892    -0.0056497
H          -2.5264376     1.1149951    -1.9022806
H          -0.0239911     1.1102640    -1.9021510
H           3.4335679     0.2888629    -1.1360372
H           1.8939607     0.3394353    -2.0586882
H           3.4111867    -0.2876524     1.2077710
H           1.8483056    -0.3798405     2.0884764
}
set {
basis STO-3G
}
gradient('BLYP')
--------------------------------------------------------------------------

  Memory set to  46.566 GiB by Python driver.
gradient() will perform analytic gradient computation.

*** tstart() called on aaojha
*** at Fri May 14 10:27:08 2021

   => Loading Basis Set <=

    Name: STO-3G
    Role: ORBITAL
    Keyword: BASIS
    atoms 1-7   entry C          line    61 file /home/aaojha/anaconda3/envs/torsiondrive/share/psi4/basis/sto-3g.gbs 
    atoms 8-9   entry N          line    71 file /home/aaojha/anaconda3/envs/torsiondrive/share/psi4/basis/sto-3g.gbs 
    atoms 10-18 entry H          line    19 file /home/aaojha/anaconda3/envs/torsiondrive/share/psi4/basis/sto-3g.gbs 


         ---------------------------------------------------------
                                   SCF
               by Justin Turney, Rob Parrish, Andy Simmonett
                          and Daniel G. A. Smith
                              RKS Reference
                        1 Threads,  47683 MiB Core
         ---------------------------------------------------------

  ==> Geometry <==

    Molecular point group: c1
    Full point group: C1

    Geometry (in Angstrom), charge = 1, multiplicity = 1:

       Center              X                  Y                   Z               Mass       
    ------------   -----------------  -----------------  -----------------  -----------------
         C            0.186046602370    -0.022379236316    -0.009166139112    12.000000000000
         C           -0.548483397630    -0.623864536316     1.072100160888    12.000000000000
         C           -1.965210897630    -0.604376436316     1.063236160888    12.000000000000
         C           -2.667172097630     0.020184763684    -0.010071239112    12.000000000000
         C           -1.946184297630     0.627377163684    -1.080603939112    12.000000000000
         C           -0.529314697630     0.609883663684    -1.085748139112    12.000000000000
         C            1.693281302370    -0.017321136316     0.006182360888    12.000000000000
         N            2.417170902370     0.268419963684    -1.138198839112    14.003074004430
         N            2.395059702370    -0.262468136316     1.172991160888    14.003074004430
         H           -0.023703697630    -1.142482536316     1.897692960888     1.007825032230
         H           -2.525261497630    -1.080534436316     1.891502960888     1.007825032230
         H           -3.775745997630     0.035223163684    -0.011265439112     1.007825032230
         H           -2.491188097630     1.122329063684    -1.907896339112     1.007825032230
         H            0.011258402370     1.117597963684    -1.907766739112     1.007825032230
         H            3.468817402370     0.296196863684    -1.141652939112     1.007825032230
         H            1.929210202370     0.346769263684    -2.064303939112     1.007825032230
         H            3.446436202370    -0.280318436316     1.202155260888     1.007825032230
         H            1.883555102370    -0.372506536316     2.082860660888     1.007825032230

  Running in c1 symmetry.

  Rotational constants: A =      0.11658  B =      0.03808  C =      0.02901 [cm^-1]
  Rotational constants: A =   3494.86862  B =   1141.63973  C =    869.70775 [MHz]
  Nuclear repulsion =  406.318061212142311

  Charge       = 1
  Multiplicity = 1
  Electrons    = 64
  Nalpha       = 32
  Nbeta        = 32

  ==> Algorithm <==

  SCF Algorithm Type is DF.
  DIIS enabled.
  MOM disabled.
  Fractional occupation disabled.
  Guess Type is SAD.
  Energy threshold   = 1.00e-08
  Density threshold  = 1.00e-08
  Integral threshold = 0.00e+00

  ==> Primary Basis <==

  Basis Set: STO-3G
    Blend: STO-3G
    Number of shells: 36
    Number of basis function: 54
    Number of Cartesian functions: 54
    Spherical Harmonics?: true
    Max angular momentum: 1

  ==> DFT Potential <==

   => Composite Functional: BLYP <= 

    BLYP GGA Exchange-Correlation Functional

    P.J. Stephens et. al., J. Phys. Chem., 98, 11623-11627, 1994
    B. Miehlich et. al., Chem. Phys. Lett., 157(3), 200-206 1989


    Deriv               =              1
    GGA                 =           TRUE
    Meta                =          FALSE

    Exchange Hybrid     =          FALSE
    MP2 Hybrid          =          FALSE

   => Exchange Functionals <=

    1.0000     XC_GGA_X_B88

   => Correlation Functionals <=

    1.0000     XC_GGA_C_LYP

   => Molecular Quadrature <=

    Radial Scheme          =       TREUTLER
    Pruning Scheme         =           FLAT
    Nuclear Scheme         =       TREUTLER

    BS radius alpha        =              1
    Pruning alpha          =              1
    Radial Points          =             75
    Spherical Points       =            302
    Total Points           =         395086
    Total Blocks           =           2995
    Max Points             =            256
    Max Functions          =             51

   => Loading Basis Set <=

    Name: (STO-3G AUX)
    Role: JKFIT
    Keyword: DF_BASIS_SCF
    atoms 1-7   entry C          line   203 file /home/aaojha/anaconda3/envs/torsiondrive/share/psi4/basis/def2-svp-jkfit.gbs 
    atoms 8-9   entry N          line   263 file /home/aaojha/anaconda3/envs/torsiondrive/share/psi4/basis/def2-svp-jkfit.gbs 
    atoms 10-18 entry H          line    23 file /home/aaojha/anaconda3/envs/torsiondrive/share/psi4/basis/def2-svp-jkfit.gbs 

  ==> Pre-Iterations <==

   -------------------------------------------------------
    Irrep   Nso     Nmo     Nalpha   Nbeta   Ndocc  Nsocc
   -------------------------------------------------------
     A         54      54       0       0       0       0
   -------------------------------------------------------
    Total      54      54      32      32      32       0
   -------------------------------------------------------

  ==> Integral Setup <==

  DFHelper Memory: AOs need 0.024 GiB; user supplied 34.425 GiB. Using in-core AOs.

  ==> MemDFJK: Density-Fitted J/K Matrices <==

    J tasked:                   Yes
    K tasked:                    No
    wK tasked:                   No
    OpenMP threads:               1
    Memory [MiB]:             35250
    Algorithm:                 Core
    Schwarz Cutoff:           1E-12
    Mask sparsity (%):       1.9890
    Fitting Condition:        1E-10

   => Auxiliary Basis Set <=

  Basis Set: (STO-3G AUX)
    Blend: DEF2-SVP-JKFIT
    Number of shells: 279
    Number of basis function: 841
    Number of Cartesian functions: 989
    Spherical Harmonics?: true
    Max angular momentum: 4

  Cached 100.0% of DFT collocation blocks in 0.500 [GiB].

  Minimum eigenvalue in the overlap matrix is 1.8839153534E-01.
  Using Symmetric Orthogonalization.

  SCF Guess: Superposition of Atomic Densities via on-the-fly atomic UHF.

  ==> Iterations <==

                           Total Energy        Delta E     RMS |[F,P]|

   @DF-RKS iter SAD:  -373.14389106693034   -3.73144e+02   0.00000e+00 
   @DF-RKS iter   1:  -376.48707223993722   -3.34318e+00   5.06614e-03 DIIS
   @DF-RKS iter   2:  -376.34582909661538    1.41243e-01   9.84709e-03 DIIS
   @DF-RKS iter   3:  -376.53533691975144   -1.89508e-01   1.72761e-03 DIIS
   @DF-RKS iter   4:  -376.54059231558483   -5.25540e-03   6.87728e-04 DIIS
   @DF-RKS iter   5:  -376.54162570007338   -1.03338e-03   1.55965e-04 DIIS
   @DF-RKS iter   6:  -376.54167271283791   -4.70128e-05   4.61802e-05 DIIS
   @DF-RKS iter   7:  -376.54167623618400   -3.52335e-06   1.79657e-05 DIIS
   @DF-RKS iter   8:  -376.54167677610849   -5.39924e-07   7.90825e-06 DIIS
   @DF-RKS iter   9:  -376.54167690814472   -1.32036e-07   9.42317e-07 DIIS
   @DF-RKS iter  10:  -376.54167690902170   -8.76980e-10   6.01981e-07 DIIS
   @DF-RKS iter  11:  -376.54167690988800   -8.66294e-10   5.28004e-08 DIIS
   @DF-RKS iter  12:  -376.54167690989016   -2.16005e-12   4.35109e-08 DIIS
   @DF-RKS iter  13:  -376.54167690989425   -4.09273e-12   6.78206e-09 DIIS
  Energy and wave function converged.


  ==> Post-Iterations <==

    Orbital Energies [Eh]
    ---------------------

    Doubly Occupied:                                                      

       1A    -14.120527     2A    -14.120306     3A    -10.091623  
       4A     -9.954378     5A     -9.928077     6A     -9.928003  
       7A     -9.916227     8A     -9.913030     9A     -9.912841  
      10A     -1.041117    11A     -0.961508    12A     -0.882068  
      13A     -0.806054    14A     -0.782928    15A     -0.737841  
      16A     -0.677802    17A     -0.668258    18A     -0.634673  
      19A     -0.632586    20A     -0.593080    21A     -0.570773  
      22A     -0.538620    23A     -0.507225    24A     -0.493884  
      25A     -0.487821    26A     -0.483544    27A     -0.419690  
      28A     -0.417635    29A     -0.412052    30A     -0.361414  
      31A     -0.325408    32A     -0.320422  

    Virtual:                                                              

      33A     -0.189512    34A     -0.107101    35A     -0.087942  
      36A      0.009987    37A      0.028443    38A      0.044391  
      39A      0.062604    40A      0.104417    41A      0.124092  
      42A      0.154390    43A      0.184798    44A      0.190958  
      45A      0.215321    46A      0.228641    47A      0.259310  
      48A      0.273938    49A      0.345627    50A      0.351968  
      51A      0.358118    52A      0.371961    53A      0.491046  
      54A      0.532627  

    Final Occupation by Irrep:
              A 
    DOCC [    32 ]

  @DF-RKS Final Energy:  -376.54167690989425

   => Energetics <=

    Nuclear Repulsion Energy =            406.3180612121423110
    One-Electron Energy =               -1303.4301853451975148
    Two-Electron Energy =                 574.8630197197721827
    DFT Exchange-Correlation Energy =     -54.2925724966112497
    Empirical Dispersion Energy =           0.0000000000000000
    VV10 Nonlocal Energy =                  0.0000000000000000
    Total Energy =                       -376.5416769098942495

Computation Completed


Properties will be evaluated at   0.000000,   0.000000,   0.000000 [a0]

Properties computed using the SCF density matrix

  Nuclear Dipole Moment: [e a0]
     X:     1.7891      Y:     0.0396      Z:     0.0386

  Electronic Dipole Moment: [e a0]
     X:     0.6932      Y:    -0.0550      Z:    -0.0202

  Dipole Moment: [e a0]
     X:     2.4824      Y:    -0.0154      Z:     0.0185     Total:     2.4825

  Dipole Moment: [D]
     X:     6.3096      Y:    -0.0392      Z:     0.0470     Total:     6.3099


*** tstop() called on aaojha at Fri May 14 10:27:15 2021
Module time:
	user time   =       6.88 seconds =       0.11 minutes
	system time =       0.18 seconds =       0.00 minutes
	total time  =          7 seconds =       0.12 minutes
Total time:
	user time   =       6.88 seconds =       0.11 minutes
	system time =       0.18 seconds =       0.00 minutes
	total time  =          7 seconds =       0.12 minutes

*** tstart() called on aaojha
*** at Fri May 14 10:27:15 2021


         ------------------------------------------------------------
                                   SCF GRAD                          
                          Rob Parrish, Justin Turney,                
                       Andy Simmonett, and Alex Sokolov              
         ------------------------------------------------------------

  ==> Geometry <==

    Molecular point group: c1
    Full point group: C1

    Geometry (in Angstrom), charge = 1, multiplicity = 1:

       Center              X                  Y                   Z               Mass       
    ------------   -----------------  -----------------  -----------------  -----------------
         C            0.186046602370    -0.022379236316    -0.009166139112    12.000000000000
         C           -0.548483397630    -0.623864536316     1.072100160888    12.000000000000
         C           -1.965210897630    -0.604376436316     1.063236160888    12.000000000000
         C           -2.667172097630     0.020184763684    -0.010071239112    12.000000000000
         C           -1.946184297630     0.627377163684    -1.080603939112    12.000000000000
         C           -0.529314697630     0.609883663684    -1.085748139112    12.000000000000
         C            1.693281302370    -0.017321136316     0.006182360888    12.000000000000
         N            2.417170902370     0.268419963684    -1.138198839112    14.003074004430
         N            2.395059702370    -0.262468136316     1.172991160888    14.003074004430
         H           -0.023703697630    -1.142482536316     1.897692960888     1.007825032230
         H           -2.525261497630    -1.080534436316     1.891502960888     1.007825032230
         H           -3.775745997630     0.035223163684    -0.011265439112     1.007825032230
         H           -2.491188097630     1.122329063684    -1.907896339112     1.007825032230
         H            0.011258402370     1.117597963684    -1.907766739112     1.007825032230
         H            3.468817402370     0.296196863684    -1.141652939112     1.007825032230
         H            1.929210202370     0.346769263684    -2.064303939112     1.007825032230
         H            3.446436202370    -0.280318436316     1.202155260888     1.007825032230
         H            1.883555102370    -0.372506536316     2.082860660888     1.007825032230

  Nuclear repulsion =  406.318061212142311

  ==> Basis Set <==

  Basis Set: STO-3G
    Blend: STO-3G
    Number of shells: 36
    Number of basis function: 54
    Number of Cartesian functions: 54
    Spherical Harmonics?: true
    Max angular momentum: 1

  ==> DFJKGrad: Density-Fitted SCF Gradients <==

    Gradient:                    1
    J tasked:                  Yes
    K tasked:                   No
    wK tasked:                  No
    OpenMP threads:              1
    Integrals threads:           1
    Memory [MiB]:            35762
    Schwarz Cutoff:          0E+00
    Fitting Condition:       1E-10

   => Auxiliary Basis Set <=

  Basis Set: (STO-3G AUX)
    Blend: DEF2-SVP-JKFIT
    Number of shells: 279
    Number of basis function: 841
    Number of Cartesian functions: 989
    Spherical Harmonics?: true
    Max angular momentum: 4

  ==> DFT Potential <==

   => Composite Functional: BLYP <= 

    BLYP GGA Exchange-Correlation Functional

    P.J. Stephens et. al., J. Phys. Chem., 98, 11623-11627, 1994
    B. Miehlich et. al., Chem. Phys. Lett., 157(3), 200-206 1989


    Deriv               =              1
    GGA                 =           TRUE
    Meta                =          FALSE

    Exchange Hybrid     =          FALSE
    MP2 Hybrid          =          FALSE

   => Exchange Functionals <=

    1.0000     XC_GGA_X_B88

   => Correlation Functionals <=

    1.0000     XC_GGA_C_LYP

   => Molecular Quadrature <=

    Radial Scheme          =       TREUTLER
    Pruning Scheme         =           FLAT
    Nuclear Scheme         =       TREUTLER

    BS radius alpha        =              1
    Pruning alpha          =              1
    Radial Points          =             75
    Spherical Points       =            302
    Total Points           =         395086
    Total Blocks           =           2995
    Max Points             =            256
    Max Functions          =             51


  -Total Gradient:
     Atom            X                  Y                   Z
    ------   -----------------  -----------------  -----------------
       1       -0.000005629373    -0.001331328456    -0.001015452542
       2        0.000014830918     0.001439351095     0.000813530781
       3        0.000035323834     0.000026682180    -0.000050137223
       4       -0.000092659000     0.000002047936    -0.000000966497
       5        0.000029438702    -0.000024976117     0.000043073888
       6        0.000021901590    -0.000002896093    -0.000008105222
       7        0.000061603365    -0.001791260389    -0.000189930653
       8       -0.000081457270     0.001611751968     0.000338259181
       9        0.000029618200     0.000083292359     0.000006089461
      10       -0.000001220638     0.000001209792     0.000000817991
      11       -0.000001258712     0.000001007197    -0.000007149554
      12       -0.000007653194    -0.000000227664    -0.000000012372
      13       -0.000002681597    -0.000002271822     0.000007206474
      14        0.000001843621    -0.000000748023    -0.000002114832
      15       -0.000007451425     0.000017140807     0.000049672295
      16       -0.000002896430     0.000043990137     0.000002327431
      17       -0.000004864315    -0.000035225488     0.000025843230
      18        0.000005324518    -0.000036257024    -0.000014008221


*** tstop() called on aaojha at Fri May 14 10:27:17 2021
Module time:
	user time   =       1.99 seconds =       0.03 minutes
	system time =       0.01 seconds =       0.00 minutes
	total time  =          2 seconds =       0.03 minutes
Total time:
	user time   =       8.87 seconds =       0.15 minutes
	system time =       0.19 seconds =       0.00 minutes
	total time  =          9 seconds =       0.15 minutes

    Psi4 stopped on: Friday, 14 May 2021 10:27AM
    Psi4 wall time for execution: 0:00:09.12

*** Psi4 exiting successfully. Buy a developer a beer!
