18   
Iteration 0 Energy -376.53473769
C        0.1511714000   -0.0010614000    0.0034014000
C       -0.5563556000   -1.0346896000    0.6924152000
C       -1.9771736000   -1.0227905000    0.6803185000
C       -2.6799502000    0.0057352000   -0.0099767000
C       -1.9657315000    1.0309234000   -0.6934389000
C       -0.5448001000    1.0358069000   -0.6923875000
C        1.6824865000   -0.0055789000    0.0101579000
N        2.3710498000   -0.6707815000   -0.9791986000
N        2.3687163000    0.6576757000    1.0024755000
H       -0.0071178000   -1.8326637000    1.2283926000
H       -2.5341291000   -1.8190990000    1.2113772000
H       -3.7877657000    0.0084266000   -0.0151872000
H       -2.5137964000    1.8299482000   -1.2296399000
H        0.0133579000    1.8314849000   -1.2225355000
H        3.4243503000   -0.7119169000   -1.0272899000
H        1.8285392000   -1.1728916000   -1.7290755000
H        3.4220465000    0.6882520000    1.0577090000
H        1.8253314000    1.1618375000    1.7503657000
18   
Iteration 1 Energy -376.53471297
C        0.1513819121    0.0175208237    0.0142699685
C       -0.5514283181   -1.0421444244    0.6675325683
C       -1.9723053456   -1.0396050197    0.6515593224
C       -2.6807351598    0.0016097820   -0.0134556288
C       -1.9710061564    1.0467440289   -0.6708824870
C       -0.5501122529    1.0611739639   -0.6655785921
C        1.6828751183    0.0106512747    0.0050915503
N        2.3627444349   -0.7147927305   -0.9471767647
N        2.3788928428    0.6960536928    0.9751117536
H        0.0016713148   -1.8525468981    1.1803750957
H       -2.5250700026   -1.8542327801    1.1586619764
H       -3.7885272676   -0.0031848902   -0.0221133896
H       -2.5227863177    1.8534578893   -1.1915298225
H        0.0039683226    1.8703231310   -1.1793466972
H        3.4156243639   -0.7707445825   -0.9904232443
H        1.8146636817   -1.2482992891   -1.6709123990
H        3.4324819563    0.7147167963    1.0309471335
H        1.8420920376    1.2317446644    1.7056324819
18   
Iteration 2 Energy -376.53477037
C        0.1514257275    0.0234937667    0.0189458168
C       -0.5495720304   -1.0512542593    0.6490200907
C       -1.9704588765   -1.0511422889    0.6318922534
C       -2.6807495170    0.0003745504   -0.0147355450
C       -1.9727602859    1.0582772143   -0.6533641474
C       -0.5518921842    1.0757785273   -0.6455425930
C        1.6829961854    0.0148812709    0.0029976064
N        2.3596538503   -0.7459879629   -0.9235225383
N        2.3829623594    0.7233027926    0.9533092154
H        0.0048255557   -1.8704142354    1.1463078458
H       -2.5218890772   -1.8763091165    1.1231601310
H       -3.7885170708   -0.0069475847   -0.0247655365
H       -2.5257434365    1.8720768035   -1.1615604379
H        0.0009863272    1.8941074678   -1.1458756357
H        3.4124682683   -0.8066848725   -0.9628005287
H        1.8102079693   -1.2989837825   -1.6314602628
H        3.4366429375    0.7417403239    1.0076329589
H        1.8484620729    1.2821273544    1.6680108631
18   
Iteration 3 Energy -376.53529796
C        0.1514082342    0.0233451054    0.0246258911
C       -0.5482676716   -1.0767303495    0.6116110556
C       -1.9689277901   -1.0763276076    0.5926807118
C       -2.6763443556   -0.0024624520   -0.0197265822
C       -1.9702509915    1.0797623344   -0.6186060668
C       -0.5496123856    1.0994587585   -0.6036653923
C        1.6820992835    0.0131825703    0.0115638905
N        2.3496415816   -0.8037148064   -0.8733025199
N        2.3858016993    0.7819536240    0.9115809705
H        0.0062464441   -1.9111133621    1.0828366282
H       -2.5215014459   -1.9179174833    1.0539482833
H       -3.7840529539   -0.0110952184   -0.0337329932
H       -2.5235636707    1.9091403262   -1.1005907870
H        0.0044243058    1.9362652890   -1.0711433438
H        3.4011595511   -0.8785701067   -0.9173937633
H        1.7913026716   -1.3844103194   -1.5512855760
H        3.4400334571    0.8076166147    0.9478801708
H        1.8573618176    1.3896500534    1.5899597133
18   
Iteration 4 Energy -376.53570272
C        0.1537414299    0.0004597125    0.0084589020
C       -0.5579130681   -1.0948630157    0.5904860061
C       -1.9787181849   -1.0802118853    0.5817109451
C       -2.6853143292    0.0049990729   -0.0115988164
C       -1.9662278314    1.0876927984   -0.5942605557
C       -0.5452986649    1.0971801652   -0.5855459784
C        1.6834713393   -0.0106827284    0.0125595935
N        2.3721143490   -0.8267854971   -0.8568553816
N        2.3741330219    0.8028721324    0.8825300727
H       -0.0099091000   -1.9379781191    1.0536556563
H       -2.5348513288   -1.9216091349    1.0389339584
H       -3.7932496990    0.0071087446   -0.0192314503
H       -2.5131988325    1.9308640430   -1.0591405494
H        0.0119457830    1.9403791671   -1.0374751100
H        3.4254059915   -0.8810293753   -0.8851900418
H        1.8319617097   -1.4253566172   -1.5339083562
H        3.4269526704    0.8633963722    0.9143320810
H        1.8315436510    1.4212082531    1.5395231241
18   
Iteration 5 Energy -376.53573323
C        0.1502065435   -0.0471900942   -0.0324602974
C       -0.5669781212   -1.1437673832    0.5441123757
C       -1.9862110977   -1.1066350277    0.5579708107
C       -2.6617819273    0.0176367335    0.0012287148
C       -1.9486931692    1.1203302939   -0.5515913408
C       -0.5290469976    1.1009566937   -0.5504647674
C        1.6737083356   -0.0449933149    0.0248613866
N        2.3895135095   -0.8728240811   -0.8120890593
N        2.3312079578    0.8638892135    0.8245381987
H       -0.0244076700   -2.0023878416    0.9849462654
H       -2.5569724151   -1.9454650275    1.0021080393
H       -3.7693203757    0.0396213270    0.0074191334
H       -2.4898064768    1.9893967752   -0.9743060333
H        0.0424091613    1.9538113713   -0.9652517443
H        3.4434647561   -0.9096975229   -0.8228449801
H        1.8702211452   -1.5142869356   -1.4653623190
H        3.3799093818    0.9759724889    0.8240707465
H        1.7698108325    1.5029251845    1.4446217452
18   
Iteration 6 Energy -376.53597984
C        0.1539801985   -0.0398141279   -0.0338749260
C       -0.5638413736   -1.1326342315    0.5482811285
C       -1.9836216034   -1.0931539508    0.5595467559
C       -2.6817615438    0.0174733076    0.0038567750
C       -1.9525173725    1.1070759682   -0.5537884950
C       -0.5322487807    1.0996133902   -0.5614658317
C        1.6784516071   -0.0332241296    0.0135217449
N        2.3953605280   -0.8601867779   -0.8239075132
N        2.3362228408    0.8558310540    0.8356347958
H       -0.0217824160   -1.9917049075    0.9890763139
H       -2.5476177965   -1.9334794620    1.0088954596
H       -3.7896435632    0.0375748302    0.0123581474
H       -2.4929655602    1.9735351090   -0.9820142915
H        0.0325937864    1.9503363855   -0.9896380971
H        3.4487694775   -0.9108644239   -0.8331491151
H        1.8727826410   -1.5040083604   -1.4721742284
H        3.3862500962    0.9542084215    0.8493873660
H        1.7757291313    1.4805810044    1.4709377225
18   
Iteration 7 Energy -376.53596262
C        0.1553084603   -0.0323543869   -0.0292964901
C       -0.5672115097   -1.1200662958    0.5553658298
C       -1.9874555444   -1.0902859462    0.5698188609
C       -2.6827237244    0.0186327673    0.0071496076
C       -1.9624027899    1.1076545841   -0.5632598286
C       -0.5419348411    1.0943542450   -0.5696099167
C        1.6822706552   -0.0281164837    0.0018011363
N        2.4017017778   -0.8489798476   -0.8388771356
N        2.3451498732    0.8401715864    0.8412175046
H       -0.0236314726   -1.9777191774    0.9965499940
H       -2.5492791050   -1.9299324974    1.0234981026
H       -3.7904888945    0.0364141048    0.0169883993
H       -2.5049075112    1.9695232128   -0.9984572603
H        0.0208038552    1.9398829120   -1.0100353555
H        3.4554930731   -0.8969867139   -0.8329871271
H        1.8852552532   -1.4935974239   -1.4915245717
H        3.3951456623    0.9333803583    0.8791436640
H        1.7805773765    1.4533688193    1.4839584759
18   
Iteration 8 Energy -376.53603741
C        0.1519717623   -0.0368982545   -0.0311509155
C       -0.5646969056   -1.1295936154    0.5518962120
C       -1.9844890099   -1.0934300441    0.5647891487
C       -2.6781806046    0.0186831830    0.0064736879
C       -1.9558882657    1.1094148903   -0.5581881419
C       -0.5357513804    1.0987509691   -0.5655942997
C        1.6774932917   -0.0315856889    0.0078372365
N        2.3950363826   -0.8544355010   -0.8325071029
N        2.3379529970    0.8496715133    0.8356663049
H       -0.0212821468   -1.9888029338    0.9906393138
H       -2.5486767345   -1.9330549498    1.0154106810
H       -3.7859536955    0.0379809072    0.0160080793
H       -2.4982157680    1.9735365445   -0.9889521175
H        0.0295314549    1.9456957660   -1.0004393860
H        3.4487166064   -0.9036023073   -0.8272318403
H        1.8773927219   -1.5019178575   -1.4813628324
H        3.3881714655    0.9432441310    0.8641561466
H        1.7752342867    1.4695789020    1.4736630693
18   
Iteration 9 Energy -376.53603876
C        0.1539566797   -0.0387484692   -0.0328769669
C       -0.5658639288   -1.1306590523    0.5475619931
C       -1.9857824323   -1.0950070564    0.5610805027
C       -2.6797880061    0.0182627377    0.0056310716
C       -1.9558511978    1.1098503962   -0.5552372982
C       -0.5356783237    1.0982746389   -0.5617899857
C        1.6791092204   -0.0317653850    0.0109223704
N        2.3961757119   -0.8560050213   -0.8287841324
N        2.3374237095    0.8563558978    0.8333442398
H       -0.0233891623   -1.9910511132    0.9850390367
H       -2.5497743725   -1.9356184949    1.0101144819
H       -3.7875635204    0.0380666020    0.0149695795
H       -2.4972878496    1.9757996182   -0.9834654997
H        0.0294857189    1.9468887900   -0.9934378005
H        3.4493526298   -0.9141776514   -0.8292110965
H        1.8738151085   -1.5061155149   -1.4710496487
H        3.3879555010    0.9473338255    0.8569760639
H        1.7763273850    1.4782466119    1.4708871719
18   
Iteration 10 Energy -376.53604720
C        0.1528388222   -0.0381002064   -0.0325876043
C       -0.5656210848   -1.1304406392    0.5487010247
C       -1.9855049473   -1.0942512599    0.5622662027
C       -2.6795538669    0.0188070046    0.0064399151
C       -1.9563061654    1.1101197497   -0.5559026661
C       -0.5361861123    1.0985815572   -0.5631970523
C        1.6781695596   -0.0317708310    0.0085734999
N        2.3956575885   -0.8548607843   -0.8318099039
N        2.3373451049    0.8541161566    0.8326307984
H       -0.0228649390   -1.9907729650    0.9859993396
H       -2.5495360227   -1.9345818386    1.0117585540
H       -3.7873233317    0.0385178348    0.0162597446
H       -2.4981152603    1.9755603379   -0.9846841538
H        0.0290642386    1.9463949009   -0.9963293418
H        3.4489656324   -0.9112377111   -0.8264406049
H        1.8756871214   -1.5072386718   -1.4738125434
H        3.3877036554    0.9457600260    0.8613145039
H        1.7748415060    1.4733659194    1.4714550551
18   
Iteration 11 Energy -376.53604878
C        0.1521193969   -0.0376629700   -0.0324723028
C       -0.5662540365   -1.1302726921    0.5484408892
C       -1.9861472447   -1.0945454389    0.5622835555
C       -2.6798245731    0.0188357956    0.0066865001
C       -1.9566284117    1.1102707175   -0.5555922059
C       -0.5365282007    1.0992052357   -0.5632436544
C        1.6775133314   -0.0319658249    0.0078067372
N        2.3952844606   -0.8542467866   -0.8331585787
N        2.3369459787    0.8540796418    0.8314298327
H       -0.0233825256   -1.9907288071    0.9853481050
H       -2.5501159389   -1.9350440841    1.0115527536
H       -3.7875903484    0.0386594466    0.0165062127
H       -2.4986528341    1.9756550400   -0.9842067474
H        0.0287247853    1.9469671016   -0.9964916580
H        3.4485240033   -0.9120377831   -0.8240906221
H        1.8760000166   -1.5092427882   -1.4731063976
H        3.3874700360    0.9433921578    0.8614063846
H        1.7749094361    1.4724768916    1.4714986359
