
    -----------------------------------------------------------------------
          Psi4: An Open-Source Ab Initio Electronic Structure Package
                               Psi4 1.3.2 release

                         Git: Rev {HEAD} ecbda83 


    R. M. Parrish, L. A. Burns, D. G. A. Smith, A. C. Simmonett,
    A. E. DePrince III, E. G. Hohenstein, U. Bozkaya, A. Yu. Sokolov,
    R. Di Remigio, R. M. Richard, J. F. Gonthier, A. M. James,
    H. R. McAlexander, A. Kumar, M. Saitow, X. Wang, B. P. Pritchard,
    P. Verma, H. F. Schaefer III, K. Patkowski, R. A. King, E. F. Valeev,
    F. A. Evangelista, J. M. Turney, T. D. Crawford, and C. D. Sherrill,
    J. Chem. Theory Comput. 13(7) pp 3185--3197 (2017).
    (doi: 10.1021/acs.jctc.7b00174)


                         Additional Contributions by
    P. Kraus, H. Kruse, M. H. Lechner, M. C. Schieber, R. A. Shaw,
    A. Alenaizan, R. Galvelis, Z. L. Glick, S. Lehtola, and J. P. Misiewicz

    -----------------------------------------------------------------------


    Psi4 started on: Friday, 14 May 2021 09:47AM

    Process ID: 7648
    Host:       aaojha
    PSIDATADIR: /home/aaojha/anaconda3/envs/torsiondrive/share/psi4
    Memory:     500.0 MiB
    Threads:    1
    
  ==> Input File <==

--------------------------------------------------------------------------
memory 50 GB
molecule {
1 1
C           0.1471732     0.0500972    -0.0108589
C          -0.5458602    -0.9364512    -0.7824903
C          -1.9658614    -0.9565533    -0.7621277
C          -2.6855195    -0.0068140     0.0187698
C          -1.9879607     0.9626300     0.7957078
C          -0.5679353     0.9869945     0.8003261
C           1.6721183     0.0244912     0.0296914
N           2.3219040    -0.4349049     1.1547947
N           2.3975550     0.3768886    -1.0874207
H           0.0167460    -1.6773216    -1.3829395
H          -2.5099194    -1.7181324    -1.3540754
H          -3.7933294    -0.0255051     0.0258702
H          -2.5496815     1.6979957     1.4040148
H          -0.0226952     1.7370525     1.4054031
H           3.3723216    -0.4469348     1.2508047
H           1.7519432    -0.7194797     1.9928745
H           3.4498146     0.3227254    -1.1350375
H           1.8880110     0.7343066    -1.9363106
}
set {
basis STO-3G
}
gradient('BLYP')
--------------------------------------------------------------------------

  Memory set to  46.566 GiB by Python driver.
gradient() will perform analytic gradient computation.

*** tstart() called on aaojha
*** at Fri May 14 09:47:05 2021

   => Loading Basis Set <=

    Name: STO-3G
    Role: ORBITAL
    Keyword: BASIS
    atoms 1-7   entry C          line    61 file /home/aaojha/anaconda3/envs/torsiondrive/share/psi4/basis/sto-3g.gbs 
    atoms 8-9   entry N          line    71 file /home/aaojha/anaconda3/envs/torsiondrive/share/psi4/basis/sto-3g.gbs 
    atoms 10-18 entry H          line    19 file /home/aaojha/anaconda3/envs/torsiondrive/share/psi4/basis/sto-3g.gbs 


         ---------------------------------------------------------
                                   SCF
               by Justin Turney, Rob Parrish, Andy Simmonett
                          and Daniel G. A. Smith
                              RKS Reference
                        1 Threads,  47683 MiB Core
         ---------------------------------------------------------

  ==> Geometry <==

    Molecular point group: c1
    Full point group: C1

    Geometry (in Angstrom), charge = 1, multiplicity = 1:

       Center              X                  Y                   Z               Mass       
    ------------   -----------------  -----------------  -----------------  -----------------
         C            0.176109082390     0.045271434224    -0.029726160884    12.000000000000
         C           -0.516924317610    -0.941276965776    -0.801357560884    12.000000000000
         C           -1.936925517610    -0.961379065776    -0.780994960884    12.000000000000
         C           -2.656583617610    -0.011639765776    -0.000097460884    12.000000000000
         C           -1.959024817610     0.957804234224     0.776840539116    12.000000000000
         C           -0.538999417610     0.982168734224     0.781458839116    12.000000000000
         C            1.701054182390     0.019665434224     0.010824139116    12.000000000000
         N            2.350839882390    -0.439730665776     1.135927439116    14.003074004430
         N            2.426490882390     0.372062834224    -1.106287960884    14.003074004430
         H            0.045681882390    -1.682147365776    -1.401806760884     1.007825032230
         H           -2.480983517610    -1.722958165776    -1.372942660884     1.007825032230
         H           -3.764393517610    -0.030330865776     0.007002939116     1.007825032230
         H           -2.520745617610     1.693169934224     1.385147539116     1.007825032230
         H            0.006240682390     1.732226734224     1.386535839116     1.007825032230
         H            3.401257482390    -0.451760565776     1.231937439116     1.007825032230
         H            1.780879082390    -0.724305465776     1.974007239116     1.007825032230
         H            3.478750482390     0.317899634224    -1.153904760884     1.007825032230
         H            1.916946882390     0.729480834224    -1.955177860884     1.007825032230

  Running in c1 symmetry.

  Rotational constants: A =      0.11600  B =      0.03536  C =      0.03129 [cm^-1]
  Rotational constants: A =   3477.67966  B =   1060.18229  C =    938.11656 [MHz]
  Nuclear repulsion =  405.499196821758972

  Charge       = 1
  Multiplicity = 1
  Electrons    = 64
  Nalpha       = 32
  Nbeta        = 32

  ==> Algorithm <==

  SCF Algorithm Type is DF.
  DIIS enabled.
  MOM disabled.
  Fractional occupation disabled.
  Guess Type is SAD.
  Energy threshold   = 1.00e-08
  Density threshold  = 1.00e-08
  Integral threshold = 0.00e+00

  ==> Primary Basis <==

  Basis Set: STO-3G
    Blend: STO-3G
    Number of shells: 36
    Number of basis function: 54
    Number of Cartesian functions: 54
    Spherical Harmonics?: true
    Max angular momentum: 1

  ==> DFT Potential <==

   => Composite Functional: BLYP <= 

    BLYP GGA Exchange-Correlation Functional

    P.J. Stephens et. al., J. Phys. Chem., 98, 11623-11627, 1994
    B. Miehlich et. al., Chem. Phys. Lett., 157(3), 200-206 1989


    Deriv               =              1
    GGA                 =           TRUE
    Meta                =          FALSE

    Exchange Hybrid     =          FALSE
    MP2 Hybrid          =          FALSE

   => Exchange Functionals <=

    1.0000     XC_GGA_X_B88

   => Correlation Functionals <=

    1.0000     XC_GGA_C_LYP

   => Molecular Quadrature <=

    Radial Scheme          =       TREUTLER
    Pruning Scheme         =           FLAT
    Nuclear Scheme         =       TREUTLER

    BS radius alpha        =              1
    Pruning alpha          =              1
    Radial Points          =             75
    Spherical Points       =            302
    Total Points           =         395764
    Total Blocks           =           2961
    Max Points             =            256
    Max Functions          =             51

   => Loading Basis Set <=

    Name: (STO-3G AUX)
    Role: JKFIT
    Keyword: DF_BASIS_SCF
    atoms 1-7   entry C          line   203 file /home/aaojha/anaconda3/envs/torsiondrive/share/psi4/basis/def2-svp-jkfit.gbs 
    atoms 8-9   entry N          line   263 file /home/aaojha/anaconda3/envs/torsiondrive/share/psi4/basis/def2-svp-jkfit.gbs 
    atoms 10-18 entry H          line    23 file /home/aaojha/anaconda3/envs/torsiondrive/share/psi4/basis/def2-svp-jkfit.gbs 

  ==> Pre-Iterations <==

   -------------------------------------------------------
    Irrep   Nso     Nmo     Nalpha   Nbeta   Ndocc  Nsocc
   -------------------------------------------------------
     A         54      54       0       0       0       0
   -------------------------------------------------------
    Total      54      54      32      32      32       0
   -------------------------------------------------------

  ==> Integral Setup <==

  DFHelper Memory: AOs need 0.024 GiB; user supplied 34.424 GiB. Using in-core AOs.

  ==> MemDFJK: Density-Fitted J/K Matrices <==

    J tasked:                   Yes
    K tasked:                    No
    wK tasked:                   No
    OpenMP threads:               1
    Memory [MiB]:             35250
    Algorithm:                 Core
    Schwarz Cutoff:           1E-12
    Mask sparsity (%):       1.9204
    Fitting Condition:        1E-10

   => Auxiliary Basis Set <=

  Basis Set: (STO-3G AUX)
    Blend: DEF2-SVP-JKFIT
    Number of shells: 279
    Number of basis function: 841
    Number of Cartesian functions: 989
    Spherical Harmonics?: true
    Max angular momentum: 4

  Cached 100.0% of DFT collocation blocks in 0.500 [GiB].

  Minimum eigenvalue in the overlap matrix is 1.8765029709E-01.
  Using Symmetric Orthogonalization.

  SCF Guess: Superposition of Atomic Densities via on-the-fly atomic UHF.

  ==> Iterations <==

                           Total Energy        Delta E     RMS |[F,P]|

   @DF-RKS iter SAD:  -373.14318186348635   -3.73143e+02   0.00000e+00 
   @DF-RKS iter   1:  -376.47933006182723   -3.33615e+00   5.16117e-03 DIIS
   @DF-RKS iter   2:  -376.32736487937598    1.51965e-01   1.03354e-02 DIIS
   @DF-RKS iter   3:  -376.53148069926704   -2.04116e-01   1.48521e-03 DIIS
   @DF-RKS iter   4:  -376.53512303433752   -3.64234e-03   6.45469e-04 DIIS
   @DF-RKS iter   5:  -376.53600233164593   -8.79297e-04   1.71669e-04 DIIS
   @DF-RKS iter   6:  -376.53606178395523   -5.94523e-05   3.25753e-05 DIIS
   @DF-RKS iter   7:  -376.53606340784108   -1.62389e-06   1.62845e-05 DIIS
   @DF-RKS iter   8:  -376.53606387409718   -4.66256e-07   4.22882e-06 DIIS
   @DF-RKS iter   9:  -376.53606391115932   -3.70621e-08   8.73810e-07 DIIS
   @DF-RKS iter  10:  -376.53606391202629   -8.66976e-10   5.57362e-07 DIIS
   @DF-RKS iter  11:  -376.53606391260348   -5.77188e-10   1.59657e-07 DIIS
   @DF-RKS iter  12:  -376.53606391265134   -4.78622e-11   2.86343e-08 DIIS
   @DF-RKS iter  13:  -376.53606391265225   -9.09495e-13   1.53970e-08 DIIS
   @DF-RKS iter  14:  -376.53606391265259   -3.41061e-13   6.23877e-09 DIIS
  Energy and wave function converged.


  ==> Post-Iterations <==

    Orbital Energies [Eh]
    ---------------------

    Doubly Occupied:                                                      

       1A    -14.134983     2A    -14.134860     3A    -10.099932  
       4A     -9.940598     5A     -9.914651     6A     -9.914063  
       7A     -9.901738     8A     -9.901138     9A     -9.900329  
      10A     -1.050509    11A     -0.972191    12A     -0.873612  
      13A     -0.799853    14A     -0.771714    15A     -0.737369  
      16A     -0.680480    17A     -0.661742    18A     -0.644863  
      19A     -0.626225    20A     -0.599602    21A     -0.566989  
      22A     -0.524971    23A     -0.516435    24A     -0.478843  
      25A     -0.477148    26A     -0.470331    27A     -0.413445  
      28A     -0.407037    29A     -0.401504    30A     -0.373392  
      31A     -0.315227    32A     -0.309469  

    Virtual:                                                              

      33A     -0.182751    34A     -0.111103    35A     -0.097115  
      36A      0.007167    37A      0.022504    38A      0.045302  
      39A      0.057773    40A      0.112109    41A      0.114972  
      42A      0.168301    43A      0.191410    44A      0.198677  
      45A      0.240032    46A      0.241822    47A      0.254303  
      48A      0.282023    49A      0.350396    50A      0.355533  
      51A      0.362914    52A      0.369319    53A      0.499583  
      54A      0.544701  

    Final Occupation by Irrep:
              A 
    DOCC [    32 ]

  @DF-RKS Final Energy:  -376.53606391265259

   => Energetics <=

    Nuclear Repulsion Energy =            405.4991968217589715
    One-Electron Energy =               -1302.0337209714946312
    Two-Electron Energy =                 574.2902856732414421
    DFT Exchange-Correlation Energy =     -54.2918254361583195
    Empirical Dispersion Energy =           0.0000000000000000
    VV10 Nonlocal Energy =                  0.0000000000000000
    Total Energy =                       -376.5360639126525939

Computation Completed


Properties will be evaluated at   0.000000,   0.000000,   0.000000 [a0]

Properties computed using the SCF density matrix

  Nuclear Dipole Moment: [e a0]
     X:     1.7332      Y:    -0.1299      Z:     0.0944

  Electronic Dipole Moment: [e a0]
     X:     1.1315      Y:     0.1128      Z:    -0.0444

  Dipole Moment: [e a0]
     X:     2.8647      Y:    -0.0171      Z:     0.0500     Total:     2.8652

  Dipole Moment: [D]
     X:     7.2814      Y:    -0.0434      Z:     0.1272     Total:     7.2827


*** tstop() called on aaojha at Fri May 14 09:47:13 2021
Module time:
	user time   =       7.51 seconds =       0.13 minutes
	system time =       0.24 seconds =       0.00 minutes
	total time  =          8 seconds =       0.13 minutes
Total time:
	user time   =       7.51 seconds =       0.13 minutes
	system time =       0.24 seconds =       0.00 minutes
	total time  =          8 seconds =       0.13 minutes

*** tstart() called on aaojha
*** at Fri May 14 09:47:13 2021


         ------------------------------------------------------------
                                   SCF GRAD                          
                          Rob Parrish, Justin Turney,                
                       Andy Simmonett, and Alex Sokolov              
         ------------------------------------------------------------

  ==> Geometry <==

    Molecular point group: c1
    Full point group: C1

    Geometry (in Angstrom), charge = 1, multiplicity = 1:

       Center              X                  Y                   Z               Mass       
    ------------   -----------------  -----------------  -----------------  -----------------
         C            0.176109082390     0.045271434224    -0.029726160884    12.000000000000
         C           -0.516924317610    -0.941276965776    -0.801357560884    12.000000000000
         C           -1.936925517610    -0.961379065776    -0.780994960884    12.000000000000
         C           -2.656583617610    -0.011639765776    -0.000097460884    12.000000000000
         C           -1.959024817610     0.957804234224     0.776840539116    12.000000000000
         C           -0.538999417610     0.982168734224     0.781458839116    12.000000000000
         C            1.701054182390     0.019665434224     0.010824139116    12.000000000000
         N            2.350839882390    -0.439730665776     1.135927439116    14.003074004430
         N            2.426490882390     0.372062834224    -1.106287960884    14.003074004430
         H            0.045681882390    -1.682147365776    -1.401806760884     1.007825032230
         H           -2.480983517610    -1.722958165776    -1.372942660884     1.007825032230
         H           -3.764393517610    -0.030330865776     0.007002939116     1.007825032230
         H           -2.520745617610     1.693169934224     1.385147539116     1.007825032230
         H            0.006240682390     1.732226734224     1.386535839116     1.007825032230
         H            3.401257482390    -0.451760565776     1.231937439116     1.007825032230
         H            1.780879082390    -0.724305465776     1.974007239116     1.007825032230
         H            3.478750482390     0.317899634224    -1.153904760884     1.007825032230
         H            1.916946882390     0.729480834224    -1.955177860884     1.007825032230

  Nuclear repulsion =  405.499196821758972

  ==> Basis Set <==

  Basis Set: STO-3G
    Blend: STO-3G
    Number of shells: 36
    Number of basis function: 54
    Number of Cartesian functions: 54
    Spherical Harmonics?: true
    Max angular momentum: 1

  ==> DFJKGrad: Density-Fitted SCF Gradients <==

    Gradient:                    1
    J tasked:                  Yes
    K tasked:                   No
    wK tasked:                  No
    OpenMP threads:              1
    Integrals threads:           1
    Memory [MiB]:            35762
    Schwarz Cutoff:          0E+00
    Fitting Condition:       1E-10

   => Auxiliary Basis Set <=

  Basis Set: (STO-3G AUX)
    Blend: DEF2-SVP-JKFIT
    Number of shells: 279
    Number of basis function: 841
    Number of Cartesian functions: 989
    Spherical Harmonics?: true
    Max angular momentum: 4

  ==> DFT Potential <==

   => Composite Functional: BLYP <= 

    BLYP GGA Exchange-Correlation Functional

    P.J. Stephens et. al., J. Phys. Chem., 98, 11623-11627, 1994
    B. Miehlich et. al., Chem. Phys. Lett., 157(3), 200-206 1989


    Deriv               =              1
    GGA                 =           TRUE
    Meta                =          FALSE

    Exchange Hybrid     =          FALSE
    MP2 Hybrid          =          FALSE

   => Exchange Functionals <=

    1.0000     XC_GGA_X_B88

   => Correlation Functionals <=

    1.0000     XC_GGA_C_LYP

   => Molecular Quadrature <=

    Radial Scheme          =       TREUTLER
    Pruning Scheme         =           FLAT
    Nuclear Scheme         =       TREUTLER

    BS radius alpha        =              1
    Pruning alpha          =              1
    Radial Points          =             75
    Spherical Points       =            302
    Total Points           =         395764
    Total Blocks           =           2961
    Max Points             =            256
    Max Functions          =             51


  -Total Gradient:
     Atom            X                  Y                   Z
    ------   -----------------  -----------------  -----------------
       1        0.000192852098     0.001788626663    -0.005122720145
       2       -0.000156567149    -0.002341122780     0.003084666772
       3        0.000014435512    -0.000012964265    -0.000010349478
       4       -0.000003335205     0.000013886502     0.000013728469
       5       -0.000021703097    -0.000031987951    -0.000026623864
       6        0.000010166324    -0.000024070289    -0.000017966655
       7       -0.000025838772     0.004352155345     0.003612355511
       8       -0.000012021086    -0.003699367336    -0.001507972218
       9        0.000007267483    -0.000048880703    -0.000013386743
      10        0.000000378276     0.000002804860     0.000001276475
      11       -0.000002929106    -0.000001261554     0.000002756046
      12        0.000000631256    -0.000000845930    -0.000003472055
      13        0.000005393697    -0.000000896619     0.000000422267
      14        0.000001008200     0.000001934884     0.000002481555
      15       -0.000000428084    -0.000026865155     0.000001290891
      16        0.000002276537    -0.000009061485    -0.000003608883
      17        0.000004626698     0.000012025564     0.000000793878
      18        0.000005577492     0.000022349077     0.000007495957


*** tstop() called on aaojha at Fri May 14 09:47:15 2021
Module time:
	user time   =       2.06 seconds =       0.03 minutes
	system time =       0.00 seconds =       0.00 minutes
	total time  =          2 seconds =       0.03 minutes
Total time:
	user time   =       9.57 seconds =       0.16 minutes
	system time =       0.24 seconds =       0.00 minutes
	total time  =         10 seconds =       0.17 minutes

    Psi4 stopped on: Friday, 14 May 2021 09:47AM
    Psi4 wall time for execution: 0:00:09.87

*** Psi4 exiting successfully. Buy a developer a beer!
