18   
Iteration 0 Energy -376.53878148
C        0.1595912000   -0.0295967000    0.0425100000
C       -0.5591471000   -1.1924312000   -0.3885926000
C       -1.9780025000   -1.1635172000   -0.4106325000
C       -2.6756301000    0.0128806000   -0.0090316000
C       -1.9563799000    1.1731863000    0.4027063000
C       -0.5374061000    1.1677901000    0.4107463000
C        1.6754763000   -0.0248722000   -0.0056279000
N        2.3957716000   -0.9540700000    0.7166831000
N        2.3389766000    0.9690248000   -0.6950347000
H       -0.0136368000   -2.0994625000   -0.7143516000
H       -2.5396833000   -2.0564516000   -0.7476763000
H       -3.7836907000    0.0278623000   -0.0225734000
H       -2.5026472000    2.0851640000    0.7131173000
H        0.0240748000    2.0658459000    0.7340340000
H        3.4462816000   -1.0277938000    0.6713001000
H        1.8791892000   -1.6817118000    1.2740062000
H        3.3888959000    1.0595601000   -0.7048497000
H        1.7833996000    1.6544750000   -1.2677534000
18   
Iteration 1 Energy -376.53976230
C        0.1592172761   -0.0166770789    0.0309152256
C       -0.5533555740   -1.1970523099   -0.3606334258
C       -1.9723820706   -1.1733912527   -0.3795070055
C       -2.6759600470    0.0092787743   -0.0075457387
C       -1.9620771698    1.1825808420    0.3756406936
C       -0.5430637872    1.1832939145    0.3802890459
C        1.6755633385   -0.0120900616    0.0021395555
N        2.3870373596   -0.9848949878    0.6741038683
N        2.3485841373    0.9975296945   -0.6544988108
H       -0.0042766087   -2.1111395836   -0.6596377502
H       -2.5307979774   -2.0778801869   -0.6900570045
H       -3.7841247376    0.0178815679   -0.0187695911
H       -2.5121173011    2.0983775726    0.6676311152
H        0.0149332154    2.0898037509    0.6854546212
H        3.4366431441   -1.0679982955    0.6244142116
H        1.8629380457   -1.7351149922    1.1931388628
H        3.3994077018    1.0771809847   -0.6611090896
H        1.8000873050    1.7077372355   -1.2033979475
18   
Iteration 2 Energy -376.54034309
C        0.1623036151   -0.0114938324    0.0241785366
C       -0.5548123481   -1.1995979333   -0.3364022945
C       -1.9737336965   -1.1855161411   -0.3532169195
C       -2.6761058788    0.0049754496   -0.0042020407
C       -1.9628415986    1.1876865361    0.3510283888
C       -0.5439641034    1.1925395375    0.3521205195
C        1.6766195764   -0.0095036469   -0.0030653526
N        2.3794545978   -1.0106278073    0.6357668826
N        2.3569194663    1.0207640174   -0.6195699692
H       -0.0052912699   -2.1180658225   -0.6204868644
H       -2.5303215026   -2.0982394709   -0.6425252221
H       -3.7843517888    0.0119948015   -0.0114390481
H       -2.5142910813    2.1078944915    0.6259956964
H        0.0113991582    2.1068924160    0.6381497687
H        3.4285091214   -1.0954520995    0.5843438232
H        1.8513241954   -1.7714783025    1.1343514792
H        3.4076752864    1.0975985889   -0.6155167782
H        1.8142340900    1.7561714800   -1.1398039141
18   
Iteration 3 Energy -376.54107868
C        0.1605908377   -0.0104328348    0.0153697083
C       -0.5494267755   -1.2154274891   -0.3027711204
C       -1.9677595791   -1.1932912533   -0.3130464826
C       -2.6755325792    0.0051997321   -0.0012206019
C       -1.9633369407    1.2002975792    0.3134423370
C       -0.5449651552    1.2035916569    0.3100546696
C        1.6715162924   -0.0096008542   -0.0059558619
N        2.3728862369   -1.0458676925    0.5769988265
N        2.3556121961    1.0519121106   -0.5631023647
H       -0.0011318163   -2.1414919122   -0.5644671645
H       -2.5257454596   -2.1144464921   -0.5708014028
H       -3.7839590086    0.0086646184   -0.0055202462
H       -2.5146981221    2.1280250406    0.5620284207
H        0.0105534882    2.1260946953    0.5686292822
H        3.4216304624   -1.1289737214    0.5244729496
H        1.8439772507   -1.8259441844    1.0430903034
H        3.4057607257    1.1291571704   -0.5433065609
H        1.8171725783    1.8168512908   -1.0428763059
18   
Iteration 4 Energy -376.54111938
C        0.1620239022   -0.0124769977    0.0220099362
C       -0.5583600509   -1.2123730910   -0.2965150237
C       -1.9765886378   -1.1954365877   -0.3103881643
C       -2.6804887752    0.0062311577   -0.0032819364
C       -1.9655460644    1.2007891938    0.3070490785
C       -0.5472930438    1.2024571854    0.3066506921
C        1.6725151809   -0.0145404061   -0.0049242144
N        2.3856113858   -1.0486417160    0.5687851110
N        2.3557016474    1.0519874994   -0.5541979409
H       -0.0125400078   -2.1395187189   -0.5591552298
H       -2.5345297926   -2.1170000946   -0.5670956539
H       -3.7888931276    0.0129011480   -0.0093957513
H       -2.5157030391    2.1306725855    0.5502633179
H        0.0063992341    2.1262710718    0.5643010283
H        3.4347144904   -1.1234702814    0.5131998186
H        1.8652268157   -1.8327349109    1.0372743468
H        3.4055890387    1.1305209368   -0.5309089455
H        1.8177266248    1.8176850671   -1.0329891156
18   
Iteration 5 Energy -376.54113071
C        0.1613053306   -0.0107995504    0.0257237730
C       -0.5566823891   -1.2125366439   -0.2936173080
C       -1.9747410937   -1.1986649368   -0.3080322139
C       -2.6776088125    0.0038553157   -0.0023268910
C       -1.9644698538    1.1999330594    0.3066754223
C       -0.5464432392    1.2059929119    0.3077555906
C        1.6708437320   -0.0104070572   -0.0072930171
N        2.3751368585   -1.0517577179    0.5648606385
N        2.3586818511    1.0555369510   -0.5538805335
H       -0.0090618542   -2.1387510746   -0.5559704996
H       -2.5320383948   -2.1208591919   -0.5639370854
H       -3.7860082591    0.0101135286   -0.0087458589
H       -2.5166532659    2.1291612886    0.5477306982
H        0.0057645037    2.1304907649    0.5664144354
H        3.4240405209   -1.1267617500    0.5083233776
H        1.8522666454   -1.8345962277    1.0328052800
H        3.4088014140    1.1299386557   -0.5294703161
H        1.8250538305    1.8217567056   -1.0365879475
18   
Iteration 6 Energy -376.54113953
C        0.1615566989   -0.0124628540    0.0254988627
C       -0.5560978676   -1.2137712213   -0.2943538659
C       -1.9742558078   -1.1959876542   -0.3084325569
C       -2.6793685272    0.0054351310   -0.0028868788
C       -1.9659418408    1.2010433677    0.3071694908
C       -0.5477520962    1.2031415891    0.3077875362
C        1.6711829958   -0.0113078967   -0.0066330657
N        2.3778076287   -1.0513479556    0.5650108826
N        2.3570905872    1.0554367643   -0.5535611518
H       -0.0093364385   -2.1406463611   -0.5561552234
H       -2.5319463565   -2.1177729647   -0.5648318799
H       -3.7877806831    0.0112227566   -0.0100260626
H       -2.5168970910    2.1309760563    0.5483972569
H        0.0054654047    2.1268944692    0.5667361404
H        3.4267423742   -1.1278557357    0.5103085391
H        1.8549526279   -1.8331832312    1.0346316778
H        3.4072140356    1.1307020472   -0.5318525036
H        1.8218970779    1.8203971075   -1.0366016365
18   
Iteration 7 Energy -376.54113929
C        0.1596391729   -0.0126829718    0.0263512865
C       -0.5574338250   -1.2139461778   -0.2947988266
C       -1.9755479750   -1.1960121267   -0.3100066073
C       -2.6793358980    0.0061438650   -0.0043038828
C       -1.9648836460    1.2009271319    0.3069463591
C       -0.5467135058    1.2044700829    0.3088549486
C        1.6692792833   -0.0131711473   -0.0048270101
N        2.3802563237   -1.0512295875    0.5649536046
N        2.3533017354    1.0541854763   -0.5521787608
H       -0.0103921330   -2.1408451395   -0.5559479786
H       -2.5336187007   -2.1173411207   -0.5672381184
H       -3.7877375117    0.0130438110   -0.0121166493
H       -2.5159436669    2.1307791442    0.5481317653
H        0.0072736681    2.1276029163    0.5685513642
H        3.4293471143   -1.1258964006    0.5097462316
H        1.8598986238   -1.8330740036    1.0372917571
H        3.4035498659    1.1287288432   -0.5334569276
H        1.8170611035    1.8178742378   -1.0361615502
18   
Iteration 8 Energy -376.54114291
C        0.1600580422   -0.0128680232    0.0268791771
C       -0.5576121754   -1.2138830129   -0.2942702696
C       -1.9757235075   -1.1960507829   -0.3094875249
C       -2.6796116821    0.0060877904   -0.0040413100
C       -1.9658687632    1.2012851015    0.3070246511
C       -0.5477238327    1.2037410654    0.3087776068
C        1.6696721858   -0.0126752840   -0.0053586494
N        2.3788139891   -1.0521067102    0.5642133883
N        2.3545655428    1.0547988919   -0.5518315695
H       -0.0107473188   -2.1408545597   -0.5555147474
H       -2.5337482849   -2.1174271775   -0.5666527422
H       -3.7880091997    0.0127057044   -0.0119603349
H       -2.5168785873    2.1312520564    0.5479610926
H        0.0059836861    2.1269964876    0.5685291348
H        3.4279398738   -1.1256065695    0.5088418800
H        1.8583864402   -1.8337074251    1.0368868795
H        3.4048692304    1.1285111628   -0.5333299379
H        1.8190908797    1.8182216260   -1.0370354108
