
    -----------------------------------------------------------------------
          Psi4: An Open-Source Ab Initio Electronic Structure Package
                               Psi4 1.3.2 release

                         Git: Rev {HEAD} ecbda83 


    R. M. Parrish, L. A. Burns, D. G. A. Smith, A. C. Simmonett,
    A. E. DePrince III, E. G. Hohenstein, U. Bozkaya, A. Yu. Sokolov,
    R. Di Remigio, R. M. Richard, J. F. Gonthier, A. M. James,
    H. R. McAlexander, A. Kumar, M. Saitow, X. Wang, B. P. Pritchard,
    P. Verma, H. F. Schaefer III, K. Patkowski, R. A. King, E. F. Valeev,
    F. A. Evangelista, J. M. Turney, T. D. Crawford, and C. D. Sherrill,
    J. Chem. Theory Comput. 13(7) pp 3185--3197 (2017).
    (doi: 10.1021/acs.jctc.7b00174)


                         Additional Contributions by
    P. Kraus, H. Kruse, M. H. Lechner, M. C. Schieber, R. A. Shaw,
    A. Alenaizan, R. Galvelis, Z. L. Glick, S. Lehtola, and J. P. Misiewicz

    -----------------------------------------------------------------------


    Psi4 started on: Friday, 14 May 2021 09:58AM

    Process ID: 13085
    Host:       aaojha
    PSIDATADIR: /home/aaojha/anaconda3/envs/torsiondrive/share/psi4
    Memory:     500.0 MiB
    Threads:    1
    
  ==> Input File <==

--------------------------------------------------------------------------
memory 50 GB
molecule {
1 1
C           0.1516875     0.0513274     0.0377709
C          -0.5499529    -0.9117405     0.8308628
C          -1.9696070    -0.9350616     0.7935870
C          -2.6797261    -0.0108146    -0.0256676
C          -1.9731030     0.9352071    -0.8231646
C          -0.5531869     0.9622249    -0.8110535
C           1.6771753     0.0272717     0.0180018
N           2.3426379    -0.4659590    -1.0833289
N           2.3867787     0.4166819     1.1329155
H           0.0060052    -1.6325512     1.4611537
H          -2.5203563    -1.6786827     1.4019649
H          -3.7873351    -0.0311247    -0.0464750
H          -2.5280904     1.6505336    -1.4608293
H          -0.0010579     1.6942945    -1.4317138
H           3.3943124    -0.4755550    -1.1650612
H           1.7847573    -0.7755563    -1.9206972
H           3.4384114     0.3670990     1.1967249
H           1.8647552     0.7985013     1.9633894
}
set {
basis STO-3G
}
gradient('BLYP')
--------------------------------------------------------------------------

  Memory set to  46.566 GiB by Python driver.
gradient() will perform analytic gradient computation.

*** tstart() called on aaojha
*** at Fri May 14 09:58:16 2021

   => Loading Basis Set <=

    Name: STO-3G
    Role: ORBITAL
    Keyword: BASIS
    atoms 1-7   entry C          line    61 file /home/aaojha/anaconda3/envs/torsiondrive/share/psi4/basis/sto-3g.gbs 
    atoms 8-9   entry N          line    71 file /home/aaojha/anaconda3/envs/torsiondrive/share/psi4/basis/sto-3g.gbs 
    atoms 10-18 entry H          line    19 file /home/aaojha/anaconda3/envs/torsiondrive/share/psi4/basis/sto-3g.gbs 


         ---------------------------------------------------------
                                   SCF
               by Justin Turney, Rob Parrish, Andy Simmonett
                          and Daniel G. A. Smith
                              RKS Reference
                        1 Threads,  47683 MiB Core
         ---------------------------------------------------------

  ==> Geometry <==

    Molecular point group: c1
    Full point group: C1

    Geometry (in Angstrom), charge = 1, multiplicity = 1:

       Center              X                  Y                   Z               Mass       
    ------------   -----------------  -----------------  -----------------  -----------------
         C            0.175390371678     0.045981604344     0.030033228499    12.000000000000
         C           -0.526250028322    -0.917086295656     0.823125128499    12.000000000000
         C           -1.945904128322    -0.940407395656     0.785849328499    12.000000000000
         C           -2.656023228322    -0.016160395656    -0.033405271501    12.000000000000
         C           -1.949400128322     0.929861304344    -0.830902271501    12.000000000000
         C           -0.529484028322     0.956879104344    -0.818791171501    12.000000000000
         C            1.700878171678     0.021925904344     0.010264128499    12.000000000000
         N            2.366340771678    -0.471304795656    -1.091066571501    14.003074004430
         N            2.410481571678     0.411336104344     1.125177828499    14.003074004430
         H            0.029708071678    -1.637896995656     1.453416028499     1.007825032230
         H           -2.496653428322    -1.684028495656     1.394227228499     1.007825032230
         H           -3.763632228322    -0.036470495656    -0.054212671501     1.007825032230
         H           -2.504387528322     1.645187804344    -1.468566971501     1.007825032230
         H            0.022644971678     1.688948704344    -1.439451471501     1.007825032230
         H            3.418015271678    -0.480900795656    -1.172798871501     1.007825032230
         H            1.808460171678    -0.780902095656    -1.928434871501     1.007825032230
         H            3.462114271678     0.361753204344     1.188987228499     1.007825032230
         H            1.888458071678     0.793155504344     1.955651728499     1.007825032230

  Running in c1 symmetry.

  Rotational constants: A =      0.11598  B =      0.03537  C =      0.03130 [cm^-1]
  Rotational constants: A =   3477.05630  B =   1060.34007  C =    938.30226 [MHz]
  Nuclear repulsion =  405.508205227097619

  Charge       = 1
  Multiplicity = 1
  Electrons    = 64
  Nalpha       = 32
  Nbeta        = 32

  ==> Algorithm <==

  SCF Algorithm Type is DF.
  DIIS enabled.
  MOM disabled.
  Fractional occupation disabled.
  Guess Type is SAD.
  Energy threshold   = 1.00e-08
  Density threshold  = 1.00e-08
  Integral threshold = 0.00e+00

  ==> Primary Basis <==

  Basis Set: STO-3G
    Blend: STO-3G
    Number of shells: 36
    Number of basis function: 54
    Number of Cartesian functions: 54
    Spherical Harmonics?: true
    Max angular momentum: 1

  ==> DFT Potential <==

   => Composite Functional: BLYP <= 

    BLYP GGA Exchange-Correlation Functional

    P.J. Stephens et. al., J. Phys. Chem., 98, 11623-11627, 1994
    B. Miehlich et. al., Chem. Phys. Lett., 157(3), 200-206 1989


    Deriv               =              1
    GGA                 =           TRUE
    Meta                =          FALSE

    Exchange Hybrid     =          FALSE
    MP2 Hybrid          =          FALSE

   => Exchange Functionals <=

    1.0000     XC_GGA_X_B88

   => Correlation Functionals <=

    1.0000     XC_GGA_C_LYP

   => Molecular Quadrature <=

    Radial Scheme          =       TREUTLER
    Pruning Scheme         =           FLAT
    Nuclear Scheme         =       TREUTLER

    BS radius alpha        =              1
    Pruning alpha          =              1
    Radial Points          =             75
    Spherical Points       =            302
    Total Points           =         395766
    Total Blocks           =           2960
    Max Points             =            256
    Max Functions          =             51

   => Loading Basis Set <=

    Name: (STO-3G AUX)
    Role: JKFIT
    Keyword: DF_BASIS_SCF
    atoms 1-7   entry C          line   203 file /home/aaojha/anaconda3/envs/torsiondrive/share/psi4/basis/def2-svp-jkfit.gbs 
    atoms 8-9   entry N          line   263 file /home/aaojha/anaconda3/envs/torsiondrive/share/psi4/basis/def2-svp-jkfit.gbs 
    atoms 10-18 entry H          line    23 file /home/aaojha/anaconda3/envs/torsiondrive/share/psi4/basis/def2-svp-jkfit.gbs 

  ==> Pre-Iterations <==

   -------------------------------------------------------
    Irrep   Nso     Nmo     Nalpha   Nbeta   Ndocc  Nsocc
   -------------------------------------------------------
     A         54      54       0       0       0       0
   -------------------------------------------------------
    Total      54      54      32      32      32       0
   -------------------------------------------------------

  ==> Integral Setup <==

  DFHelper Memory: AOs need 0.024 GiB; user supplied 34.424 GiB. Using in-core AOs.

  ==> MemDFJK: Density-Fitted J/K Matrices <==

    J tasked:                   Yes
    K tasked:                    No
    wK tasked:                   No
    OpenMP threads:               1
    Memory [MiB]:             35250
    Algorithm:                 Core
    Schwarz Cutoff:           1E-12
    Mask sparsity (%):       1.8519
    Fitting Condition:        1E-10

   => Auxiliary Basis Set <=

  Basis Set: (STO-3G AUX)
    Blend: DEF2-SVP-JKFIT
    Number of shells: 279
    Number of basis function: 841
    Number of Cartesian functions: 989
    Spherical Harmonics?: true
    Max angular momentum: 4

  Cached 100.0% of DFT collocation blocks in 0.501 [GiB].

  Minimum eigenvalue in the overlap matrix is 1.8765171226E-01.
  Using Symmetric Orthogonalization.

  SCF Guess: Superposition of Atomic Densities via on-the-fly atomic UHF.

  ==> Iterations <==

                           Total Energy        Delta E     RMS |[F,P]|

   @DF-RKS iter SAD:  -373.14319672498584   -3.73143e+02   0.00000e+00 
   @DF-RKS iter   1:  -376.47934299139229   -3.33615e+00   5.16039e-03 DIIS
   @DF-RKS iter   2:  -376.32746115277450    1.51882e-01   1.03331e-02 DIIS
   @DF-RKS iter   3:  -376.53148490912611   -2.04024e-01   1.48439e-03 DIIS
   @DF-RKS iter   4:  -376.53512298144847   -3.63807e-03   6.45147e-04 DIIS
   @DF-RKS iter   5:  -376.53600147597103   -8.78495e-04   1.71599e-04 DIIS
   @DF-RKS iter   6:  -376.53606088925903   -5.94133e-05   3.25126e-05 DIIS
   @DF-RKS iter   7:  -376.53606250876373   -1.61950e-06   1.62249e-05 DIIS
   @DF-RKS iter   8:  -376.53606297209251   -4.63329e-07   4.18126e-06 DIIS
   @DF-RKS iter   9:  -376.53606300876186   -3.66693e-08   7.34731e-07 DIIS
   @DF-RKS iter  10:  -376.53606300928504   -5.23187e-10   5.14766e-07 DIIS
   @DF-RKS iter  11:  -376.53606300976742   -4.82373e-10   1.61916e-07 DIIS
   @DF-RKS iter  12:  -376.53606300981653   -4.91127e-11   2.96039e-08 DIIS
   @DF-RKS iter  13:  -376.53606300981824   -1.70530e-12   9.60585e-09 DIIS
  Energy and wave function converged.


  ==> Post-Iterations <==

    Orbital Energies [Eh]
    ---------------------

    Doubly Occupied:                                                      

       1A    -14.135011     2A    -14.134878     3A    -10.099904  
       4A     -9.940590     5A     -9.914636     6A     -9.914089  
       7A     -9.901735     8A     -9.901139     9A     -9.900320  
      10A     -1.050537    11A     -0.972226    12A     -0.873616  
      13A     -0.799824    14A     -0.771740    15A     -0.737349  
      16A     -0.680488    17A     -0.661730    18A     -0.644893  
      19A     -0.626213    20A     -0.599640    21A     -0.566984  
      22A     -0.524955    23A     -0.516447    24A     -0.478807  
      25A     -0.477206    26A     -0.470329    27A     -0.413454  
      28A     -0.407001    29A     -0.401541    30A     -0.373415  
      31A     -0.315209    32A     -0.309483  

    Virtual:                                                              

      33A     -0.182732    34A     -0.111080    35A     -0.097134  
      36A      0.007146    37A      0.022535    38A      0.045285  
      39A      0.057756    40A      0.112113    41A      0.114940  
      42A      0.168290    43A      0.191404    44A      0.198592  
      45A      0.239990    46A      0.241867    47A      0.254333  
      48A      0.282039    49A      0.350360    50A      0.355503  
      51A      0.362840    52A      0.369429    53A      0.499566  
      54A      0.544698  

    Final Occupation by Irrep:
              A 
    DOCC [    32 ]

  @DF-RKS Final Energy:  -376.53606300981824

   => Energetics <=

    Nuclear Repulsion Energy =            405.5082052270976192
    One-Electron Energy =               -1302.0514306294280686
    Two-Electron Energy =                 574.2990049195292386
    DFT Exchange-Correlation Energy =     -54.2918425270169962
    Empirical Dispersion Energy =           0.0000000000000000
    VV10 Nonlocal Energy =                  0.0000000000000000
    Total Energy =                       -376.5360630098182355

Computation Completed


Properties will be evaluated at   0.000000,   0.000000,   0.000000 [a0]

Properties computed using the SCF density matrix

  Nuclear Dipole Moment: [e a0]
     X:     1.7343      Y:    -0.1228      Z:    -0.0668

  Electronic Dipole Moment: [e a0]
     X:     1.1308      Y:     0.1128      Z:     0.0540

  Dipole Moment: [e a0]
     X:     2.8650      Y:    -0.0100      Z:    -0.0128     Total:     2.8651

  Dipole Moment: [D]
     X:     7.2822      Y:    -0.0255      Z:    -0.0325     Total:     7.2823


*** tstop() called on aaojha at Fri May 14 09:58:24 2021
Module time:
	user time   =       7.01 seconds =       0.12 minutes
	system time =       0.20 seconds =       0.00 minutes
	total time  =          8 seconds =       0.13 minutes
Total time:
	user time   =       7.01 seconds =       0.12 minutes
	system time =       0.20 seconds =       0.00 minutes
	total time  =          8 seconds =       0.13 minutes

*** tstart() called on aaojha
*** at Fri May 14 09:58:24 2021


         ------------------------------------------------------------
                                   SCF GRAD                          
                          Rob Parrish, Justin Turney,                
                       Andy Simmonett, and Alex Sokolov              
         ------------------------------------------------------------

  ==> Geometry <==

    Molecular point group: c1
    Full point group: C1

    Geometry (in Angstrom), charge = 1, multiplicity = 1:

       Center              X                  Y                   Z               Mass       
    ------------   -----------------  -----------------  -----------------  -----------------
         C            0.175390371678     0.045981604344     0.030033228499    12.000000000000
         C           -0.526250028322    -0.917086295656     0.823125128499    12.000000000000
         C           -1.945904128322    -0.940407395656     0.785849328499    12.000000000000
         C           -2.656023228322    -0.016160395656    -0.033405271501    12.000000000000
         C           -1.949400128322     0.929861304344    -0.830902271501    12.000000000000
         C           -0.529484028322     0.956879104344    -0.818791171501    12.000000000000
         C            1.700878171678     0.021925904344     0.010264128499    12.000000000000
         N            2.366340771678    -0.471304795656    -1.091066571501    14.003074004430
         N            2.410481571678     0.411336104344     1.125177828499    14.003074004430
         H            0.029708071678    -1.637896995656     1.453416028499     1.007825032230
         H           -2.496653428322    -1.684028495656     1.394227228499     1.007825032230
         H           -3.763632228322    -0.036470495656    -0.054212671501     1.007825032230
         H           -2.504387528322     1.645187804344    -1.468566971501     1.007825032230
         H            0.022644971678     1.688948704344    -1.439451471501     1.007825032230
         H            3.418015271678    -0.480900795656    -1.172798871501     1.007825032230
         H            1.808460171678    -0.780902095656    -1.928434871501     1.007825032230
         H            3.462114271678     0.361753204344     1.188987228499     1.007825032230
         H            1.888458071678     0.793155504344     1.955651728499     1.007825032230

  Nuclear repulsion =  405.508205227097619

  ==> Basis Set <==

  Basis Set: STO-3G
    Blend: STO-3G
    Number of shells: 36
    Number of basis function: 54
    Number of Cartesian functions: 54
    Spherical Harmonics?: true
    Max angular momentum: 1

  ==> DFJKGrad: Density-Fitted SCF Gradients <==

    Gradient:                    1
    J tasked:                  Yes
    K tasked:                   No
    wK tasked:                  No
    OpenMP threads:              1
    Integrals threads:           1
    Memory [MiB]:            35762
    Schwarz Cutoff:          0E+00
    Fitting Condition:       1E-10

   => Auxiliary Basis Set <=

  Basis Set: (STO-3G AUX)
    Blend: DEF2-SVP-JKFIT
    Number of shells: 279
    Number of basis function: 841
    Number of Cartesian functions: 989
    Spherical Harmonics?: true
    Max angular momentum: 4

  ==> DFT Potential <==

   => Composite Functional: BLYP <= 

    BLYP GGA Exchange-Correlation Functional

    P.J. Stephens et. al., J. Phys. Chem., 98, 11623-11627, 1994
    B. Miehlich et. al., Chem. Phys. Lett., 157(3), 200-206 1989


    Deriv               =              1
    GGA                 =           TRUE
    Meta                =          FALSE

    Exchange Hybrid     =          FALSE
    MP2 Hybrid          =          FALSE

   => Exchange Functionals <=

    1.0000     XC_GGA_X_B88

   => Correlation Functionals <=

    1.0000     XC_GGA_C_LYP

   => Molecular Quadrature <=

    Radial Scheme          =       TREUTLER
    Pruning Scheme         =           FLAT
    Nuclear Scheme         =       TREUTLER

    BS radius alpha        =              1
    Pruning alpha          =              1
    Radial Points          =             75
    Spherical Points       =            302
    Total Points           =         395766
    Total Blocks           =           2960
    Max Points             =            256
    Max Functions          =             51


  -Total Gradient:
     Atom            X                  Y                   Z
    ------   -----------------  -----------------  -----------------
       1       -0.000122392763     0.001912775726     0.005064427811
       2       -0.000099941685    -0.002337217934    -0.003075823293
       3       -0.000105868375    -0.000162497347     0.000141667514
       4        0.000011459275     0.000013083982    -0.000015253512
       5        0.000112403072    -0.000158459722     0.000144730561
       6        0.000213671762     0.000202641941    -0.000158568834
       7        0.000155799356     0.004216943145    -0.003740820230
       8       -0.000129497793    -0.003764430951     0.001554152874
       9       -0.000030394664    -0.000051558936    -0.000045903617
      10       -0.000022486982     0.000013895617     0.000003965223
      11       -0.000017983076    -0.000009469770     0.000004259450
      12        0.000001625019    -0.000022509608     0.000022815431
      13        0.000026713213    -0.000007443821     0.000002459228
      14        0.000020159642     0.000022677763    -0.000000716115
      15        0.000015314255     0.000055577401     0.000084342712
      16       -0.000011821571     0.000020619036    -0.000019404123
      17        0.000001560934     0.000037016783     0.000030627984
      18        0.000004129732     0.000014165640    -0.000017375110


*** tstop() called on aaojha at Fri May 14 09:58:26 2021
Module time:
	user time   =       2.03 seconds =       0.03 minutes
	system time =       0.00 seconds =       0.00 minutes
	total time  =          2 seconds =       0.03 minutes
Total time:
	user time   =       9.05 seconds =       0.15 minutes
	system time =       0.20 seconds =       0.00 minutes
	total time  =         10 seconds =       0.17 minutes

    Psi4 stopped on: Friday, 14 May 2021 09:58AM
    Psi4 wall time for execution: 0:00:09.29

*** Psi4 exiting successfully. Buy a developer a beer!
