
    -----------------------------------------------------------------------
          Psi4: An Open-Source Ab Initio Electronic Structure Package
                               Psi4 1.3.2 release

                         Git: Rev {HEAD} ecbda83 


    R. M. Parrish, L. A. Burns, D. G. A. Smith, A. C. Simmonett,
    A. E. DePrince III, E. G. Hohenstein, U. Bozkaya, A. Yu. Sokolov,
    R. Di Remigio, R. M. Richard, J. F. Gonthier, A. M. James,
    H. R. McAlexander, A. Kumar, M. Saitow, X. Wang, B. P. Pritchard,
    P. Verma, H. F. Schaefer III, K. Patkowski, R. A. King, E. F. Valeev,
    F. A. Evangelista, J. M. Turney, T. D. Crawford, and C. D. Sherrill,
    J. Chem. Theory Comput. 13(7) pp 3185--3197 (2017).
    (doi: 10.1021/acs.jctc.7b00174)


                         Additional Contributions by
    P. Kraus, H. Kruse, M. H. Lechner, M. C. Schieber, R. A. Shaw,
    A. Alenaizan, R. Galvelis, Z. L. Glick, S. Lehtola, and J. P. Misiewicz

    -----------------------------------------------------------------------


    Psi4 started on: Friday, 14 May 2021 09:00AM

    Process ID: 28046
    Host:       aaojha
    PSIDATADIR: /home/aaojha/anaconda3/envs/torsiondrive/share/psi4
    Memory:     500.0 MiB
    Threads:    1
    
  ==> Input File <==

--------------------------------------------------------------------------
memory 50 GB
molecule {
1 1
C           0.1669419     0.0025491    -0.0156831
C          -0.5576553    -1.2362127    -0.1203595
C          -1.9745784    -1.2313134    -0.1186524
C          -2.6865963    -0.0011035     0.0010728
C          -1.9753907     1.2297221     0.1188233
C          -0.5584701     1.2385157     0.1128322
C           1.6740630     0.0027074     0.0049002
N           2.3835493    -1.1632772     0.2333558
N           2.3895935     1.1607705    -0.2425696
H          -0.0240672    -2.1980627    -0.2462854
H          -2.5265738    -2.1865504    -0.2148910
H          -3.7952698    -0.0019365     0.0051568
H          -2.5286081     2.1832393     0.2243850
H          -0.0258719     2.2006176     0.2417565
H           3.4351171    -1.1931173     0.2290071
H           1.8789762    -2.0344714     0.5303194
H           3.4407410     1.1895269    -0.2142183
H           1.8894306     2.0377393    -0.5295748
}
set {
basis STO-3G
}
gradient('BLYP')
--------------------------------------------------------------------------

  Memory set to  46.566 GiB by Python driver.
gradient() will perform analytic gradient computation.

*** tstart() called on aaojha
*** at Fri May 14 09:00:32 2021

   => Loading Basis Set <=

    Name: STO-3G
    Role: ORBITAL
    Keyword: BASIS
    atoms 1-7   entry C          line    61 file /home/aaojha/anaconda3/envs/torsiondrive/share/psi4/basis/sto-3g.gbs 
    atoms 8-9   entry N          line    71 file /home/aaojha/anaconda3/envs/torsiondrive/share/psi4/basis/sto-3g.gbs 
    atoms 10-18 entry H          line    19 file /home/aaojha/anaconda3/envs/torsiondrive/share/psi4/basis/sto-3g.gbs 


         ---------------------------------------------------------
                                   SCF
               by Justin Turney, Rob Parrish, Andy Simmonett
                          and Daniel G. A. Smith
                              RKS Reference
                        1 Threads,  47683 MiB Core
         ---------------------------------------------------------

  ==> Geometry <==

    Molecular point group: c1
    Full point group: C1

    Geometry (in Angstrom), charge = 1, multiplicity = 1:

       Center              X                  Y                   Z               Mass       
    ------------   -----------------  -----------------  -----------------  -----------------
         C            0.186301871157     0.002381965270    -0.013139557006    12.000000000000
         C           -0.538295328843    -1.236379834730    -0.117815957006    12.000000000000
         C           -1.955218428843    -1.231480534730    -0.116108857006    12.000000000000
         C           -2.667236328843    -0.001270634730     0.003616342994    12.000000000000
         C           -1.956030728843     1.229554965270     0.121366842994    12.000000000000
         C           -0.539110128843     1.238348565270     0.115375742994    12.000000000000
         C            1.693422971157     0.002540265270     0.007443742994    12.000000000000
         N            2.402909271157    -1.163444334730     0.235899342994    14.003074004430
         N            2.408953471157     1.160603365270    -0.240026057006    14.003074004430
         H           -0.004707228843    -2.198229834730    -0.243741857006     1.007825032230
         H           -2.507213828843    -2.186717534730    -0.212347457006     1.007825032230
         H           -3.775909828843    -0.002103634730     0.007700342994     1.007825032230
         H           -2.509248128843     2.183072165270     0.226928542994     1.007825032230
         H           -0.006511928843     2.200450465270     0.244300042994     1.007825032230
         H            3.454477071157    -1.193284434730     0.231550642994     1.007825032230
         H            1.898336171157    -2.034638534730     0.532862942994     1.007825032230
         H            3.460100971157     1.189359765270    -0.211674757006     1.007825032230
         H            1.908790571157     2.037572165270    -0.527031257006     1.007825032230

  Running in c1 symmetry.

  Rotational constants: A =      0.11656  B =      0.03808  C =      0.02901 [cm^-1]
  Rotational constants: A =   3494.33115  B =   1141.75662  C =    869.81613 [MHz]
  Nuclear repulsion =  406.324369409978942

  Charge       = 1
  Multiplicity = 1
  Electrons    = 64
  Nalpha       = 32
  Nbeta        = 32

  ==> Algorithm <==

  SCF Algorithm Type is DF.
  DIIS enabled.
  MOM disabled.
  Fractional occupation disabled.
  Guess Type is SAD.
  Energy threshold   = 1.00e-08
  Density threshold  = 1.00e-08
  Integral threshold = 0.00e+00

  ==> Primary Basis <==

  Basis Set: STO-3G
    Blend: STO-3G
    Number of shells: 36
    Number of basis function: 54
    Number of Cartesian functions: 54
    Spherical Harmonics?: true
    Max angular momentum: 1

  ==> DFT Potential <==

   => Composite Functional: BLYP <= 

    BLYP GGA Exchange-Correlation Functional

    P.J. Stephens et. al., J. Phys. Chem., 98, 11623-11627, 1994
    B. Miehlich et. al., Chem. Phys. Lett., 157(3), 200-206 1989


    Deriv               =              1
    GGA                 =           TRUE
    Meta                =          FALSE

    Exchange Hybrid     =          FALSE
    MP2 Hybrid          =          FALSE

   => Exchange Functionals <=

    1.0000     XC_GGA_X_B88

   => Correlation Functionals <=

    1.0000     XC_GGA_C_LYP

   => Molecular Quadrature <=

    Radial Scheme          =       TREUTLER
    Pruning Scheme         =           FLAT
    Nuclear Scheme         =       TREUTLER

    BS radius alpha        =              1
    Pruning alpha          =              1
    Radial Points          =             75
    Spherical Points       =            302
    Total Points           =         395095
    Total Blocks           =           2956
    Max Points             =            256
    Max Functions          =             51

   => Loading Basis Set <=

    Name: (STO-3G AUX)
    Role: JKFIT
    Keyword: DF_BASIS_SCF
    atoms 1-7   entry C          line   203 file /home/aaojha/anaconda3/envs/torsiondrive/share/psi4/basis/def2-svp-jkfit.gbs 
    atoms 8-9   entry N          line   263 file /home/aaojha/anaconda3/envs/torsiondrive/share/psi4/basis/def2-svp-jkfit.gbs 
    atoms 10-18 entry H          line    23 file /home/aaojha/anaconda3/envs/torsiondrive/share/psi4/basis/def2-svp-jkfit.gbs 

  ==> Pre-Iterations <==

   -------------------------------------------------------
    Irrep   Nso     Nmo     Nalpha   Nbeta   Ndocc  Nsocc
   -------------------------------------------------------
     A         54      54       0       0       0       0
   -------------------------------------------------------
    Total      54      54      32      32      32       0
   -------------------------------------------------------

  ==> Integral Setup <==

  DFHelper Memory: AOs need 0.024 GiB; user supplied 34.426 GiB. Using in-core AOs.

  ==> MemDFJK: Density-Fitted J/K Matrices <==

    J tasked:                   Yes
    K tasked:                    No
    wK tasked:                   No
    OpenMP threads:               1
    Memory [MiB]:             35251
    Algorithm:                 Core
    Schwarz Cutoff:           1E-12
    Mask sparsity (%):       1.9890
    Fitting Condition:        1E-10

   => Auxiliary Basis Set <=

  Basis Set: (STO-3G AUX)
    Blend: DEF2-SVP-JKFIT
    Number of shells: 279
    Number of basis function: 841
    Number of Cartesian functions: 989
    Spherical Harmonics?: true
    Max angular momentum: 4

  Cached 100.0% of DFT collocation blocks in 0.499 [GiB].

  Minimum eigenvalue in the overlap matrix is 1.8838856072E-01.
  Using Symmetric Orthogonalization.

  SCF Guess: Superposition of Atomic Densities via on-the-fly atomic UHF.

  ==> Iterations <==

                           Total Energy        Delta E     RMS |[F,P]|

   @DF-RKS iter SAD:  -373.14397399091615   -3.73144e+02   0.00000e+00 
   @DF-RKS iter   1:  -376.48708050006917   -3.34311e+00   5.06644e-03 DIIS
   @DF-RKS iter   2:  -376.34584636596674    1.41234e-01   9.84752e-03 DIIS
   @DF-RKS iter   3:  -376.53533874441507   -1.89492e-01   1.72686e-03 DIIS
   @DF-RKS iter   4:  -376.54058934621696   -5.25060e-03   6.87156e-04 DIIS
   @DF-RKS iter   5:  -376.54162092607726   -1.03158e-03   1.56106e-04 DIIS
   @DF-RKS iter   6:  -376.54166805323359   -4.71272e-05   4.61311e-05 DIIS
   @DF-RKS iter   7:  -376.54167157641541   -3.52318e-06   1.78784e-05 DIIS
   @DF-RKS iter   8:  -376.54167211092681   -5.34511e-07   7.91069e-06 DIIS
   @DF-RKS iter   9:  -376.54167224302853   -1.32102e-07   9.38714e-07 DIIS
   @DF-RKS iter  10:  -376.54167224389266   -8.64134e-10   6.01738e-07 DIIS
   @DF-RKS iter  11:  -376.54167224475805   -8.65384e-10   5.29030e-08 DIIS
   @DF-RKS iter  12:  -376.54167224475987   -1.81899e-12   4.35908e-08 DIIS
   @DF-RKS iter  13:  -376.54167224476407   -4.20641e-12   6.88394e-09 DIIS
  Energy and wave function converged.


  ==> Post-Iterations <==

    Orbital Energies [Eh]
    ---------------------

    Doubly Occupied:                                                      

       1A    -14.120447     2A    -14.120257     3A    -10.091649  
       4A     -9.954378     5A     -9.928135     6A     -9.927997  
       7A     -9.916255     8A     -9.913068     9A     -9.912868  
      10A     -1.040947    11A     -0.961510    12A     -0.882090  
      13A     -0.806078    14A     -0.782952    15A     -0.737907  
      16A     -0.677632    17A     -0.668368    18A     -0.634629  
      19A     -0.632758    20A     -0.592828    21A     -0.570773  
      22A     -0.538678    23A     -0.507306    24A     -0.493793  
      25A     -0.487847    26A     -0.483553    27A     -0.419738  
      28A     -0.417671    29A     -0.412063    30A     -0.361355  
      31A     -0.325434    32A     -0.320447  

    Virtual:                                                              

      33A     -0.189501    34A     -0.107136    35A     -0.087948  
      36A      0.010171    37A      0.028304    38A      0.044134  
      39A      0.062748    40A      0.104241    41A      0.124591  
      42A      0.154346    43A      0.184809    44A      0.191030  
      45A      0.215426    46A      0.228608    47A      0.259097  
      48A      0.274185    49A      0.345666    50A      0.351923  
      51A      0.358045    52A      0.372020    53A      0.491008  
      54A      0.532613  

    Final Occupation by Irrep:
              A 
    DOCC [    32 ]

  @DF-RKS Final Energy:  -376.54167224476407

   => Energetics <=

    Nuclear Repulsion Energy =            406.3243694099789423
    One-Electron Energy =               -1303.4427987784388279
    Two-Electron Energy =                 574.8693356718299583
    DFT Exchange-Correlation Energy =     -54.2925785481341805
    Empirical Dispersion Energy =           0.0000000000000000
    VV10 Nonlocal Energy =                  0.0000000000000000
    Total Energy =                       -376.5416722447640723

Computation Completed


Properties will be evaluated at   0.000000,   0.000000,   0.000000 [a0]

Properties computed using the SCF density matrix

  Nuclear Dipole Moment: [e a0]
     X:     1.7842      Y:    -0.0042      Z:     0.0455

  Electronic Dipole Moment: [e a0]
     X:     0.6968      Y:     0.0099      Z:    -0.0120

  Dipole Moment: [e a0]
     X:     2.4810      Y:     0.0057      Z:     0.0335     Total:     2.4812

  Dipole Moment: [D]
     X:     6.3060      Y:     0.0145      Z:     0.0851     Total:     6.3066


*** tstop() called on aaojha at Fri May 14 09:00:39 2021
Module time:
	user time   =       7.28 seconds =       0.12 minutes
	system time =       0.17 seconds =       0.00 minutes
	total time  =          7 seconds =       0.12 minutes
Total time:
	user time   =       7.28 seconds =       0.12 minutes
	system time =       0.17 seconds =       0.00 minutes
	total time  =          7 seconds =       0.12 minutes

*** tstart() called on aaojha
*** at Fri May 14 09:00:39 2021


         ------------------------------------------------------------
                                   SCF GRAD                          
                          Rob Parrish, Justin Turney,                
                       Andy Simmonett, and Alex Sokolov              
         ------------------------------------------------------------

  ==> Geometry <==

    Molecular point group: c1
    Full point group: C1

    Geometry (in Angstrom), charge = 1, multiplicity = 1:

       Center              X                  Y                   Z               Mass       
    ------------   -----------------  -----------------  -----------------  -----------------
         C            0.186301871157     0.002381965270    -0.013139557006    12.000000000000
         C           -0.538295328843    -1.236379834730    -0.117815957006    12.000000000000
         C           -1.955218428843    -1.231480534730    -0.116108857006    12.000000000000
         C           -2.667236328843    -0.001270634730     0.003616342994    12.000000000000
         C           -1.956030728843     1.229554965270     0.121366842994    12.000000000000
         C           -0.539110128843     1.238348565270     0.115375742994    12.000000000000
         C            1.693422971157     0.002540265270     0.007443742994    12.000000000000
         N            2.402909271157    -1.163444334730     0.235899342994    14.003074004430
         N            2.408953471157     1.160603365270    -0.240026057006    14.003074004430
         H           -0.004707228843    -2.198229834730    -0.243741857006     1.007825032230
         H           -2.507213828843    -2.186717534730    -0.212347457006     1.007825032230
         H           -3.775909828843    -0.002103634730     0.007700342994     1.007825032230
         H           -2.509248128843     2.183072165270     0.226928542994     1.007825032230
         H           -0.006511928843     2.200450465270     0.244300042994     1.007825032230
         H            3.454477071157    -1.193284434730     0.231550642994     1.007825032230
         H            1.898336171157    -2.034638534730     0.532862942994     1.007825032230
         H            3.460100971157     1.189359765270    -0.211674757006     1.007825032230
         H            1.908790571157     2.037572165270    -0.527031257006     1.007825032230

  Nuclear repulsion =  406.324369409978942

  ==> Basis Set <==

  Basis Set: STO-3G
    Blend: STO-3G
    Number of shells: 36
    Number of basis function: 54
    Number of Cartesian functions: 54
    Spherical Harmonics?: true
    Max angular momentum: 1

  ==> DFJKGrad: Density-Fitted SCF Gradients <==

    Gradient:                    1
    J tasked:                  Yes
    K tasked:                   No
    wK tasked:                  No
    OpenMP threads:              1
    Integrals threads:           1
    Memory [MiB]:            35762
    Schwarz Cutoff:          0E+00
    Fitting Condition:       1E-10

   => Auxiliary Basis Set <=

  Basis Set: (STO-3G AUX)
    Blend: DEF2-SVP-JKFIT
    Number of shells: 279
    Number of basis function: 841
    Number of Cartesian functions: 989
    Spherical Harmonics?: true
    Max angular momentum: 4

  ==> DFT Potential <==

   => Composite Functional: BLYP <= 

    BLYP GGA Exchange-Correlation Functional

    P.J. Stephens et. al., J. Phys. Chem., 98, 11623-11627, 1994
    B. Miehlich et. al., Chem. Phys. Lett., 157(3), 200-206 1989


    Deriv               =              1
    GGA                 =           TRUE
    Meta                =          FALSE

    Exchange Hybrid     =          FALSE
    MP2 Hybrid          =          FALSE

   => Exchange Functionals <=

    1.0000     XC_GGA_X_B88

   => Correlation Functionals <=

    1.0000     XC_GGA_C_LYP

   => Molecular Quadrature <=

    Radial Scheme          =       TREUTLER
    Pruning Scheme         =           FLAT
    Nuclear Scheme         =       TREUTLER

    BS radius alpha        =              1
    Pruning alpha          =              1
    Radial Points          =             75
    Spherical Points       =            302
    Total Points           =         395095
    Total Blocks           =           2956
    Max Points             =            256
    Max Functions          =             51


  -Total Gradient:
     Atom            X                  Y                   Z
    ------   -----------------  -----------------  -----------------
       1        0.000105133664     0.000021472269    -0.003448196447
       2       -0.000090380285    -0.000046654302     0.001710529195
       3       -0.000082386276    -0.000079811299    -0.000006321420
       4       -0.000142155083    -0.000006067463     0.000003114359
       5        0.000167876935    -0.000304316101    -0.000020347378
       6        0.000096173784     0.000196829495     0.000052284298
       7       -0.000524253708     0.000519977175     0.003557283570
       8        0.000240106962     0.000038988956    -0.001723610405
       9        0.000157174831    -0.000088467698    -0.000144541616
      10        0.000046858366     0.000060974997     0.000038444000
      11       -0.000026759262     0.000007247310    -0.000016711247
      12       -0.000014526277    -0.000029472447     0.000001203599
      13        0.000018111222    -0.000020715029    -0.000002148944
      14        0.000060070087    -0.000004339109     0.000007684576
      15       -0.000024712376    -0.000471456727     0.000033086564
      16       -0.000009065762     0.000041709654    -0.000081012456
      17        0.000000695446     0.000190758657    -0.000002028119
      18        0.000012723026    -0.000027659013     0.000040953051


*** tstop() called on aaojha at Fri May 14 09:00:41 2021
Module time:
	user time   =       2.11 seconds =       0.04 minutes
	system time =       0.01 seconds =       0.00 minutes
	total time  =          2 seconds =       0.03 minutes
Total time:
	user time   =       9.39 seconds =       0.16 minutes
	system time =       0.18 seconds =       0.00 minutes
	total time  =          9 seconds =       0.15 minutes

    Psi4 stopped on: Friday, 14 May 2021 09:00AM
    Psi4 wall time for execution: 0:00:09.62

*** Psi4 exiting successfully. Buy a developer a beer!
