18   
Iteration 0 Energy -376.53606041
C        0.1526875000    0.0490483000   -0.0394481000
C       -0.5474362000   -0.9422145000   -0.7982886000
C       -1.9670737000   -0.9633877000   -0.7588812000
C       -2.6784705000   -0.0114619000    0.0269919000
C       -1.9737092000    0.9633340000    0.7906863000
C       -0.5537998000    0.9890586000    0.7757292000
C        1.6782908000    0.0270664000   -0.0181478000
N        2.3450522000   -0.4259660000    1.0995448000
N        2.3877390000    0.3826722000   -1.1443907000
H        0.0086190000   -1.6844755000   -1.4031112000
H       -2.5177271000   -1.7282393000   -1.3404062000
H       -3.7860569000   -0.0323157000    0.0481585000
H       -2.5288640000    1.7005869000    1.4027566000
H       -0.0017236000    1.7431639000    1.3694228000
H        3.3968921000   -0.4317809000    1.1793288000
H        1.7885775000   -0.7095524000    1.9469832000
H        3.4394474000    0.3331829000   -1.2069659000
H        1.8649689000    0.7357995000   -1.9869993000
18   
Iteration 1 Energy -376.53693374
C        0.1527741536    0.0297495035   -0.0246547380
C       -0.5534647122   -0.9297316619   -0.8180537626
C       -1.9734400068   -0.9443866682   -0.7882763081
C       -2.6797853294   -0.0079241537    0.0201243755
C       -1.9677099537    0.9414209561    0.8089134768
C       -0.5475956995    0.9611172188    0.8052484518
C        1.6784174835    0.0106886085   -0.0181340258
N        2.3558119469   -0.3732328283    1.1188796050
N        2.3774763390    0.3364092636   -1.1598898976
H        0.0002447735   -1.6569717430   -1.4428715952
H       -2.5265003704   -1.6883184884   -1.3941966764
H       -3.7876090415   -0.0191469551    0.0366717266
H       -2.5207360816    1.6689600436    1.4342819303
H        0.0065567402    1.6993381538    1.4168098266
H        3.4075037612   -0.3614013906    1.1997119855
H        1.8042703986   -0.6210275005    1.9806203432
H        3.4296799331    0.2994635910   -1.2229699592
H        1.8470122367    0.6502799366   -2.0131856382
18   
Iteration 2 Energy -376.53755736
C        0.1543266697    0.0231204765   -0.0206183555
C       -0.5535986524   -0.9162198474   -0.8363999133
C       -1.9735343790   -0.9269561909   -0.8075344697
C       -2.6795627067   -0.0054442227    0.0184598330
C       -1.9684978165    0.9269441440    0.8280651232
C       -0.5483991418    0.9392328024    0.8247335319
C        1.6787656203    0.0099145427   -0.0181690691
N        2.3582479783   -0.3308672124    1.1313819152
N        2.3747868237    0.2993616622   -1.1716971012
H       -0.0013578175   -1.6328219387   -1.4747065083
H       -2.5279082880   -1.6567933251   -1.4291695172
H       -3.7874571815   -0.0148182708    0.0323131860
H       -2.5201555026    1.6444179263    1.4662431502
H        0.0067414151    1.6637760926    1.4514995528
H        3.4096226544   -0.3097573285    1.2125808924
H        1.8079306524   -0.5577808400    1.9995253953
H        3.4268432059    0.2612672814   -1.2343391550
H        1.8424036539    0.5781174859   -2.0358047221
18   
Iteration 3 Energy -376.53858932
C        0.1592412107    0.0404432158   -0.0297393415
C       -0.5460533279   -0.8668846857   -0.8840747174
C       -1.9650933938   -0.8853348499   -0.8464612609
C       -2.6762958775   -0.0061521207    0.0218961832
C       -1.9739105606    0.8910484372    0.8781252035
C       -0.5544691696    0.9008119587    0.8660129301
C        1.6771579349    0.0430362386   -0.0219474934
N        2.3469844098   -0.2301499177    1.1517616648
N        2.3771369054    0.2097046175   -1.1980549196
H        0.0071763424   -1.5597487541   -1.5474907225
H       -2.5185294245   -1.5911560536   -1.4959600672
H       -3.7842116615   -0.0242983288    0.0361291849
H       -2.5264387823    1.5753177069    1.5513352277
H       -0.0010379333    1.5922290053    1.5305343791
H        3.3974447648   -0.2077498472    1.2357602039
H        1.7918711186   -0.4220300687    2.0247353479
H        3.4266716621    0.1322434856   -1.2550424460
H        1.8498282976    0.4005453913   -2.0881529387
18   
Iteration 4 Energy -376.53864613
C        0.1579956578    0.0360906289   -0.0303281694
C       -0.5495728899   -0.8717723067   -0.8825957369
C       -1.9686790435   -0.8867324294   -0.8448713119
C       -2.6797160948   -0.0050606781    0.0207508516
C       -1.9764987637    0.8939086398    0.8741449046
C       -0.5570021634    0.9014608076    0.8600334737
C        1.6770153778    0.0299442740   -0.0180505133
N        2.3559153442   -0.2396081944    1.1515919970
N        2.3770362872    0.2117508351   -1.1918421656
H        0.0019263866   -1.5661641387   -1.5458455493
H       -2.5229406820   -1.5932754557   -1.4928920603
H       -3.7876417037   -0.0220357519    0.0343831849
H       -2.5280658451    1.5804676886    1.5458119002
H       -0.0029184774    1.5966038682    1.5200700881
H        3.4069487239   -0.2127599232    1.2285188367
H        1.8070348497   -0.4238945692    2.0301158413
H        3.4269010230    0.1405987985   -1.2528062912
H        1.8483228519    0.4201913023   -2.0772148458
18   
Iteration 5 Energy -376.53867965
C        0.1573202967    0.0371570508   -0.0336993006
C       -0.5505306526   -0.8730084793   -0.8838292574
C       -1.9694419416   -0.8894384098   -0.8434938263
C       -2.6770685672   -0.0078555089    0.0247875762
C       -1.9727406198    0.8927195445    0.8756966047
C       -0.5534295481    0.9038652371    0.8590769261
C        1.6760845714    0.0260428228   -0.0237821269
N        2.3463016634   -0.2432895127    1.1510628351
N        2.3804341477    0.2115122351   -1.1950287621
H        0.0004646172   -1.5658629851   -1.5491401299
H       -2.5250203691   -1.5964021059   -1.4899619932
H       -3.7849178082   -0.0257639945    0.0419032124
H       -2.5242109306    1.5782301171    1.5484869046
H        0.0020246024    1.6018576577    1.5150443364
H        3.3969905860   -0.2165168597    1.2318758116
H        1.7927396787   -0.4192550888    2.0284303440
H        3.4306373200    0.1401359608   -1.2499338442
H        1.8568850180    0.4310535467   -2.0808215518
18   
Iteration 6 Energy -376.53873765
C        0.1579388704    0.0459540217   -0.0395770482
C       -0.5517906683   -0.8647316176   -0.8881773835
C       -1.9705536230   -0.8869203451   -0.8447222913
C       -2.6794099574   -0.0118757207    0.0290545537
C       -1.9718236019    0.8867446433    0.8796845455
C       -0.5527434210    0.9049591306    0.8608300901
C        1.6756978961    0.0287872763   -0.0280885817
N        2.3416831589   -0.2398044821    1.1496017265
N        2.3841865035    0.1999111615   -1.1992762928
H       -0.0006945758   -1.5533492167   -1.5577791344
H       -2.5250805894   -1.5938969226   -1.4920740334
H       -3.7871781694   -0.0332695700    0.0505626053
H       -2.5234688577    1.5672424695    1.5573432276
H        0.0017332677    1.6042551892    1.5163296399
H        3.3918078639   -0.2179301082    1.2382896311
H        1.7827744333   -0.4053488215    2.0255505626
H        3.4339868791    0.1210083160   -1.2500290746
H        1.8655696335    0.4235401469   -2.0868580552
18   
Iteration 7 Energy -376.53878642
C        0.1521759744    0.0683736451   -0.0512122440
C       -0.5530901434   -0.8448301981   -0.9026913715
C       -1.9710219872   -0.8818453908   -0.8554157250
C       -2.6752428493   -0.0189376252    0.0341581034
C       -1.9714258236    0.8773910137    0.8914364452
C       -0.5534158820    0.9103860619    0.8696804050
C        1.6670820776    0.0350902899   -0.0294313651
N        2.3345052519   -0.2319436811    1.1484933416
N        2.3809613939    0.1636203866   -1.2027120726
H        0.0022698902   -1.5221037112   -1.5803537704
H       -2.5244180960   -1.5873585291   -1.5054589486
H       -3.7826631677   -0.0482412171    0.0631831425
H       -2.5272429180    1.5441774831    1.5791976334
H       -0.0001328683    1.6098017831    1.5263787597
H        3.3852826462   -0.2159602848    1.2304229263
H        1.7781745756   -0.3723820009    2.0303814203
H        3.4290693554    0.0657818510   -1.2505290548
H        1.8700981126    0.3947386370   -2.0926618753
18   
Iteration 8 Energy -376.53879145
C        0.1539254521    0.0640261462   -0.0494163280
C       -0.5530890791   -0.8476527707   -0.9006927009
C       -1.9713169153   -0.8788103836   -0.8514800512
C       -2.6837900638   -0.0165575077    0.0321390646
C       -1.9721760503    0.8761400502    0.8864902084
C       -0.5536981677    0.9081893344    0.8677256191
C        1.6696173389    0.0323860541   -0.0273182181
N        2.3375508946   -0.2350270035    1.1503539978
N        2.3821200705    0.1663618871   -1.2010827022
H        0.0001064598   -1.5283391811   -1.5767236200
H       -2.5237394589   -1.5849751788   -1.5014837441
H       -3.7914420300   -0.0438864321    0.0591994147
H       -2.5257264758    1.5454564976    1.5734470643
H       -0.0013050896    1.6058847044    1.5269688689
H        3.3888547599   -0.2151558417    1.2238364537
H        1.7853657508   -0.3761039827    2.0347454079
H        3.4304281752    0.0724382517   -1.2523888745
H        1.8689878442    0.3999561975   -2.0891188696
18   
Iteration 9 Energy -376.53880814
C        0.1552317494    0.0590802679   -0.0457246711
C       -0.5547849942   -0.8513310152   -0.8956510455
C       -1.9731600198   -0.8830249360   -0.8517666560
C       -2.6810785345   -0.0149109591    0.0297320823
C       -1.9718068339    0.8793450822    0.8842993419
C       -0.5530708207    0.9078387003    0.8664559447
C        1.6717811005    0.0307360855   -0.0265796202
N        2.3412347462   -0.2370657080    1.1501086644
N        2.3815116227    0.1746026645   -1.2009678669
H       -0.0015459769   -1.5349977085   -1.5684877481
H       -2.5260688593   -1.5897495400   -1.5008825350
H       -3.7887599221   -0.0393972465    0.0552520042
H       -2.5254993977    1.5515195798    1.5684121095
H       -0.0002850762    1.6044715952    1.5263667963
H        3.3920187393   -0.2187625582    1.2309901538
H        1.7864249660   -0.3824408253    2.0320724303
H        3.4301668941    0.0851345736   -1.2545346703
H        1.8653982685    0.4081012715   -2.0873474675
18   
Iteration 10 Energy -376.53880856
C        0.1534158084    0.0602472556   -0.0469856543
C       -0.5529057163   -0.8516847633   -0.8984407904
C       -1.9710784959   -0.8821554993   -0.8518728411
C       -2.6790224068   -0.0151809764    0.0308448041
C       -1.9711524157    0.8794528618    0.8861635531
C       -0.5526458756    0.9086518843    0.8675147360
C        1.6693748238    0.0313436533   -0.0268417746
N        2.3391617474   -0.2362398949    1.1495835772
N        2.3795033908    0.1719388441   -1.2012086997
H        0.0008124152   -1.5344677396   -1.5719223515
H       -2.5246954096   -1.5883726979   -1.5008828372
H       -3.7866714376   -0.0407497727    0.0566227796
H       -2.5252820810    1.5506880971    1.5708584997
H        0.0008378511    1.6053977166    1.5268054576
H        3.3898385366   -0.2184893628    1.2323316902
H        1.7835360221   -0.3804403850    2.0312455354
H        3.4281526302    0.0810842473   -1.2526662761
H        1.8645935603    0.4054542899   -2.0882742116
