
Host: aaojha

Timers On : Fri May 14 09:56:15 2021
Timers Off: Fri May 14 09:56:25 2021

Wall Time:        9.65 seconds

                                                       Time (seconds)
Module                                       User      System        Wall        Calls
V: Grid                             :      1.233u      0.017s      0.750w      1 calls
DFH: sparsity prep                  :      0.017u      0.000s      0.013w      1 calls
DFH: initialize()                   :      0.633u      0.033s      0.397w      1 calls
DFH: AO Construction                :      0.267u      0.000s      0.159w      1 calls
DFH: AO-Met. Contraction            :      0.067u      0.017s      0.047w      1 calls
HF: Form core H                     :      0.000u      0.000s      0.002w      1 calls
HF: Form S/X                        :      0.000u      0.000s      0.000w      1 calls
HF: Guess                           :      0.267u      0.000s      0.162w      1 calls
SAD Guess                           :      0.250u      0.000s      0.155w      1 calls
HF: Form G                          :      8.450u      0.117s      5.124w     14 calls
RV: Form V                          :      8.417u      0.117s      5.102w     14 calls
Properties                          :      2.233u      0.050s      1.541w  44445 calls
Functional                          :      4.633u      0.067s      2.679w  44445 calls
V_xc                                :      2.333u      0.017s      1.361w  41482 calls
JK: D                               :      0.000u      0.000s      0.000w     14 calls
JK: USO2AO                          :      0.000u      0.000s      0.000w     14 calls
JK: JK                              :      0.033u      0.000s      0.021w     14 calls
DFH: compute_JK()                   :      0.033u      0.000s      0.021w     14 calls
DFH: Grabbing AOs                   :      0.000u      0.000s      0.000w     14 calls
DFH: compute_J                      :      0.033u      0.000s      0.021w     14 calls
JK: AO2USO                          :      0.000u      0.000s      0.000w     14 calls
HF: Form F                          :      0.000u      0.000s      0.000w     14 calls
HF: Form D                          :      0.000u      0.000s      0.000w     14 calls
HF: DIIS                            :      0.000u      0.000s      0.006w     13 calls
DIISManager::add_entry              :      0.000u      0.000s      0.001w     13 calls
DIISManager::extrapolate            :      0.000u      0.000s      0.001w     13 calls
bMatrix setup                       :      0.000u      0.000s      0.001w     13 calls
bMatrix pseudoinverse               :      0.000u      0.000s      0.000w     13 calls
New vector                          :      0.000u      0.000s      0.000w     13 calls
HF: Form C                          :      0.017u      0.000s      0.003w     13 calls
Grad: V T Perturb                   :      0.083u      0.000s      0.053w      1 calls
Grad: S                             :      0.000u      0.000s      0.001w      1 calls
Grad: JK                            :      1.900u      0.000s      1.135w      1 calls
JKGrad: Amn                         :      0.283u      0.000s      0.176w      1 calls
JKGrad: Awmn                        :      0.000u      0.000s      0.000w      1 calls
JKGrad: AB                          :      0.283u      0.000s      0.168w      1 calls
JKGrad: UV                          :      0.000u      0.000s      0.000w      1 calls
JKGrad: ABx                         :      0.133u      0.000s      0.077w      1 calls
JKGrad: Amnx                        :      1.167u      0.000s      0.700w      1 calls
Grad: XC                            :      1.383u      0.017s      0.848w      1 calls
V_xc gradient                       :      0.467u      0.000s      0.303w   2963 calls

--------------------------------------------------------------------------------------
V: Grid                             :      1.233u      0.017s      0.750w      1 calls
DFH: sparsity prep                  :      0.017u      0.000s      0.013w      1 calls
DFH: initialize()                   :      0.633u      0.033s      0.397w      1 calls
| DFH: AO Construction              :      0.267u      0.000s      0.159w      1 calls
| DFH: AO-Met. Contraction          :      0.067u      0.017s      0.047w      1 calls
HF: Form core H                     :      0.000u      0.000s      0.002w      1 calls
HF: Form S/X                        :      0.000u      0.000s      0.000w      1 calls
HF: Guess                           :      0.267u      0.000s      0.162w      1 calls
| SAD Guess                         :      0.250u      0.000s      0.155w      1 calls
HF: Form G                          :      8.450u      0.117s      5.124w     14 calls
| RV: Form V                        :      8.417u      0.117s      5.102w     14 calls
| | Properties                      :      1.700u      0.033s      1.182w  41482 calls
| | Functional                      :      4.250u      0.067s      2.498w  41482 calls
| | V_xc                            :      2.333u      0.017s      1.361w  41482 calls
| JK: D                             :      0.000u      0.000s      0.000w     14 calls
| JK: USO2AO                        :      0.000u      0.000s      0.000w     14 calls
| JK: JK                            :      0.033u      0.000s      0.021w     14 calls
| | DFH: compute_JK()               :      0.033u      0.000s      0.021w     14 calls
| | | DFH: Grabbing AOs             :      0.000u      0.000s      0.000w     14 calls
| | | DFH: compute_J                :      0.033u      0.000s      0.021w     14 calls
| JK: AO2USO                        :      0.000u      0.000s      0.000w     14 calls
HF: Form F                          :      0.000u      0.000s      0.000w     14 calls
HF: Form D                          :      0.000u      0.000s      0.000w     14 calls
HF: DIIS                            :      0.000u      0.000s      0.006w     13 calls
| DIISManager::add_entry            :      0.000u      0.000s      0.001w     13 calls
| DIISManager::extrapolate          :      0.000u      0.000s      0.001w     13 calls
| | bMatrix setup                   :      0.000u      0.000s      0.001w     13 calls
| | bMatrix pseudoinverse           :      0.000u      0.000s      0.000w     13 calls
| | New vector                      :      0.000u      0.000s      0.000w     13 calls
HF: Form C                          :      0.017u      0.000s      0.003w     13 calls
Grad: V T Perturb                   :      0.083u      0.000s      0.053w      1 calls
Grad: S                             :      0.000u      0.000s      0.001w      1 calls
Grad: JK                            :      1.900u      0.000s      1.135w      1 calls
| JKGrad: Amn                       :      0.283u      0.000s      0.176w      1 calls
| JKGrad: Awmn                      :      0.000u      0.000s      0.000w      1 calls
| JKGrad: AB                        :      0.283u      0.000s      0.168w      1 calls
| JKGrad: UV                        :      0.000u      0.000s      0.000w      1 calls
| JKGrad: ABx                       :      0.133u      0.000s      0.077w      1 calls
| JKGrad: Amnx                      :      1.167u      0.000s      0.700w      1 calls
Grad: XC                            :      1.383u      0.017s      0.848w      1 calls
| Properties                        :      0.533u      0.017s      0.359w   2963 calls
| Functional                        :      0.383u      0.000s      0.181w   2963 calls
| V_xc gradient                     :      0.467u      0.000s      0.303w   2963 calls

**************************************************************************************

Host: aaojha

Timers On : Fri May 14 09:56:25 2021
Timers Off: Fri May 14 09:56:35 2021

Wall Time:        9.63 seconds

                                                       Time (seconds)
Module                                       User      System        Wall        Calls
V: Grid                             :      1.250u      0.017s      0.767w      1 calls
DFH: sparsity prep                  :      0.017u      0.000s      0.013w      1 calls
DFH: initialize()                   :      0.650u      0.033s      0.406w      1 calls
DFH: AO Construction                :      0.267u      0.000s      0.163w      1 calls
DFH: AO-Met. Contraction            :      0.067u      0.017s      0.050w      1 calls
HF: Form core H                     :      0.000u      0.000s      0.000w      1 calls
HF: Form S/X                        :      0.000u      0.000s      0.000w      1 calls
HF: Guess                           :      0.233u      0.017s      0.161w      1 calls
SAD Guess                           :      0.233u      0.017s      0.154w      1 calls
HF: Form G                          :      8.317u      0.100s      5.055w     14 calls
RV: Form V                          :      8.283u      0.100s      5.033w     14 calls
Properties                          :      2.717u      0.017s      1.516w  44415 calls
Functional                          :      4.417u      0.033s      2.652w  44415 calls
V_xc                                :      1.967u      0.067s      1.337w  41454 calls
JK: D                               :      0.000u      0.000s      0.000w     14 calls
JK: USO2AO                          :      0.000u      0.000s      0.000w     14 calls
JK: JK                              :      0.033u      0.000s      0.021w     14 calls
DFH: compute_JK()                   :      0.033u      0.000s      0.021w     14 calls
DFH: Grabbing AOs                   :      0.000u      0.000s      0.000w     14 calls
DFH: compute_J                      :      0.033u      0.000s      0.021w     14 calls
JK: AO2USO                          :      0.000u      0.000s      0.000w     14 calls
HF: Form F                          :      0.000u      0.000s      0.000w     14 calls
HF: Form D                          :      0.000u      0.000s      0.000w     14 calls
HF: DIIS                            :      0.017u      0.000s      0.006w     13 calls
DIISManager::add_entry              :      0.000u      0.000s      0.001w     13 calls
DIISManager::extrapolate            :      0.017u      0.000s      0.001w     13 calls
bMatrix setup                       :      0.000u      0.000s      0.001w     13 calls
bMatrix pseudoinverse               :      0.000u      0.000s      0.000w     13 calls
New vector                          :      0.017u      0.000s      0.000w     13 calls
HF: Form C                          :      0.000u      0.000s      0.003w     13 calls
Grad: V T Perturb                   :      0.083u      0.000s      0.053w      1 calls
Grad: S                             :      0.000u      0.000s      0.001w      1 calls
Grad: JK                            :      1.933u      0.000s      1.166w      1 calls
JKGrad: Amn                         :      0.300u      0.000s      0.179w      1 calls
JKGrad: Awmn                        :      0.000u      0.000s      0.000w      1 calls
JKGrad: AB                          :      0.283u      0.000s      0.173w      1 calls
JKGrad: UV                          :      0.000u      0.000s      0.000w      1 calls
JKGrad: ABx                         :      0.133u      0.000s      0.078w      1 calls
JKGrad: Amnx                        :      1.183u      0.000s      0.713w      1 calls
Grad: XC                            :      1.383u      0.017s      0.837w      1 calls
V_xc gradient                       :      0.433u      0.000s      0.303w   2961 calls

--------------------------------------------------------------------------------------
V: Grid                             :      1.250u      0.017s      0.767w      1 calls
DFH: sparsity prep                  :      0.017u      0.000s      0.013w      1 calls
DFH: initialize()                   :      0.650u      0.033s      0.406w      1 calls
| DFH: AO Construction              :      0.267u      0.000s      0.163w      1 calls
| DFH: AO-Met. Contraction          :      0.067u      0.017s      0.050w      1 calls
HF: Form core H                     :      0.000u      0.000s      0.000w      1 calls
HF: Form S/X                        :      0.000u      0.000s      0.000w      1 calls
HF: Guess                           :      0.233u      0.017s      0.161w      1 calls
| SAD Guess                         :      0.233u      0.017s      0.154w      1 calls
HF: Form G                          :      8.317u      0.100s      5.055w     14 calls
| RV: Form V                        :      8.283u      0.100s      5.033w     14 calls
| | Properties                      :      2.083u      0.017s      1.163w  41454 calls
| | Functional                      :      4.100u      0.017s      2.475w  41454 calls
| | V_xc                            :      1.967u      0.067s      1.337w  41454 calls
| JK: D                             :      0.000u      0.000s      0.000w     14 calls
| JK: USO2AO                        :      0.000u      0.000s      0.000w     14 calls
| JK: JK                            :      0.033u      0.000s      0.021w     14 calls
| | DFH: compute_JK()               :      0.033u      0.000s      0.021w     14 calls
| | | DFH: Grabbing AOs             :      0.000u      0.000s      0.000w     14 calls
| | | DFH: compute_J                :      0.033u      0.000s      0.021w     14 calls
| JK: AO2USO                        :      0.000u      0.000s      0.000w     14 calls
HF: Form F                          :      0.000u      0.000s      0.000w     14 calls
HF: Form D                          :      0.000u      0.000s      0.000w     14 calls
HF: DIIS                            :      0.017u      0.000s      0.006w     13 calls
| DIISManager::add_entry            :      0.000u      0.000s      0.001w     13 calls
| DIISManager::extrapolate          :      0.017u      0.000s      0.001w     13 calls
| | bMatrix setup                   :      0.000u      0.000s      0.001w     13 calls
| | bMatrix pseudoinverse           :      0.000u      0.000s      0.000w     13 calls
| | New vector                      :      0.017u      0.000s      0.000w     13 calls
HF: Form C                          :      0.000u      0.000s      0.003w     13 calls
Grad: V T Perturb                   :      0.083u      0.000s      0.053w      1 calls
Grad: S                             :      0.000u      0.000s      0.001w      1 calls
Grad: JK                            :      1.933u      0.000s      1.166w      1 calls
| JKGrad: Amn                       :      0.300u      0.000s      0.179w      1 calls
| JKGrad: Awmn                      :      0.000u      0.000s      0.000w      1 calls
| JKGrad: AB                        :      0.283u      0.000s      0.173w      1 calls
| JKGrad: UV                        :      0.000u      0.000s      0.000w      1 calls
| JKGrad: ABx                       :      0.133u      0.000s      0.078w      1 calls
| JKGrad: Amnx                      :      1.183u      0.000s      0.713w      1 calls
Grad: XC                            :      1.383u      0.017s      0.837w      1 calls
| Properties                        :      0.633u      0.000s      0.353w   2961 calls
| Functional                        :      0.317u      0.017s      0.177w   2961 calls
| V_xc gradient                     :      0.433u      0.000s      0.303w   2961 calls

**************************************************************************************

Host: aaojha

Timers On : Fri May 14 09:56:35 2021
Timers Off: Fri May 14 09:56:45 2021

Wall Time:        9.51 seconds

                                                       Time (seconds)
Module                                       User      System        Wall        Calls
V: Grid                             :      1.217u      0.017s      0.739w      1 calls
DFH: sparsity prep                  :      0.017u      0.000s      0.013w      1 calls
DFH: initialize()                   :      0.633u      0.017s      0.392w      1 calls
DFH: AO Construction                :      0.250u      0.000s      0.156w      1 calls
DFH: AO-Met. Contraction            :      0.083u      0.000s      0.047w      1 calls
HF: Form core H                     :      0.000u      0.000s      0.002w      1 calls
HF: Form S/X                        :      0.000u      0.000s      0.000w      1 calls
HF: Guess                           :      0.267u      0.000s      0.159w      1 calls
SAD Guess                           :      0.250u      0.000s      0.152w      1 calls
HF: Form G                          :      8.267u      0.100s      5.044w     14 calls
RV: Form V                          :      8.233u      0.100s      5.022w     14 calls
Properties                          :      2.500u      0.017s      1.520w  44640 calls
Functional                          :      4.300u      0.067s      2.639w  44640 calls
V_xc                                :      2.133u      0.033s      1.337w  41664 calls
JK: D                               :      0.000u      0.000s      0.000w     14 calls
JK: USO2AO                          :      0.000u      0.000s      0.000w     14 calls
JK: JK                              :      0.033u      0.000s      0.021w     14 calls
DFH: compute_JK()                   :      0.033u      0.000s      0.021w     14 calls
DFH: Grabbing AOs                   :      0.000u      0.000s      0.000w     14 calls
DFH: compute_J                      :      0.033u      0.000s      0.021w     14 calls
JK: AO2USO                          :      0.000u      0.000s      0.000w     14 calls
HF: Form F                          :      0.000u      0.000s      0.000w     14 calls
HF: Form D                          :      0.000u      0.000s      0.000w     14 calls
HF: DIIS                            :      0.017u      0.000s      0.006w     13 calls
DIISManager::add_entry              :      0.000u      0.000s      0.001w     13 calls
DIISManager::extrapolate            :      0.000u      0.000s      0.001w     13 calls
bMatrix setup                       :      0.000u      0.000s      0.001w     13 calls
bMatrix pseudoinverse               :      0.000u      0.000s      0.000w     13 calls
New vector                          :      0.000u      0.000s      0.000w     13 calls
HF: Form C                          :      0.033u      0.000s      0.003w     13 calls
Grad: V T Perturb                   :      0.083u      0.000s      0.052w      1 calls
Grad: S                             :      0.000u      0.000s      0.001w      1 calls
Grad: JK                            :      1.883u      0.000s      1.134w      1 calls
JKGrad: Amn                         :      0.300u      0.000s      0.174w      1 calls
JKGrad: Awmn                        :      0.000u      0.000s      0.000w      1 calls
JKGrad: AB                          :      0.267u      0.000s      0.165w      1 calls
JKGrad: UV                          :      0.000u      0.000s      0.000w      1 calls
JKGrad: ABx                         :      0.133u      0.000s      0.078w      1 calls
JKGrad: Amnx                        :      1.167u      0.000s      0.702w      1 calls
Grad: XC                            :      1.400u      0.017s      0.844w      1 calls
V_xc gradient                       :      0.617u      0.000s      0.305w   2976 calls

--------------------------------------------------------------------------------------
V: Grid                             :      1.217u      0.017s      0.739w      1 calls
DFH: sparsity prep                  :      0.017u      0.000s      0.013w      1 calls
DFH: initialize()                   :      0.633u      0.017s      0.392w      1 calls
| DFH: AO Construction              :      0.250u      0.000s      0.156w      1 calls
| DFH: AO-Met. Contraction          :      0.083u      0.000s      0.047w      1 calls
HF: Form core H                     :      0.000u      0.000s      0.002w      1 calls
HF: Form S/X                        :      0.000u      0.000s      0.000w      1 calls
HF: Guess                           :      0.267u      0.000s      0.159w      1 calls
| SAD Guess                         :      0.250u      0.000s      0.152w      1 calls
HF: Form G                          :      8.267u      0.100s      5.044w     14 calls
| RV: Form V                        :      8.233u      0.100s      5.022w     14 calls
| | Properties                      :      2.033u      0.017s      1.164w  41664 calls
| | Functional                      :      3.983u      0.050s      2.461w  41664 calls
| | V_xc                            :      2.133u      0.033s      1.337w  41664 calls
| JK: D                             :      0.000u      0.000s      0.000w     14 calls
| JK: USO2AO                        :      0.000u      0.000s      0.000w     14 calls
| JK: JK                            :      0.033u      0.000s      0.021w     14 calls
| | DFH: compute_JK()               :      0.033u      0.000s      0.021w     14 calls
| | | DFH: Grabbing AOs             :      0.000u      0.000s      0.000w     14 calls
| | | DFH: compute_J                :      0.033u      0.000s      0.021w     14 calls
| JK: AO2USO                        :      0.000u      0.000s      0.000w     14 calls
HF: Form F                          :      0.000u      0.000s      0.000w     14 calls
HF: Form D                          :      0.000u      0.000s      0.000w     14 calls
HF: DIIS                            :      0.017u      0.000s      0.006w     13 calls
| DIISManager::add_entry            :      0.000u      0.000s      0.001w     13 calls
| DIISManager::extrapolate          :      0.000u      0.000s      0.001w     13 calls
| | bMatrix setup                   :      0.000u      0.000s      0.001w     13 calls
| | bMatrix pseudoinverse           :      0.000u      0.000s      0.000w     13 calls
| | New vector                      :      0.000u      0.000s      0.000w     13 calls
HF: Form C                          :      0.033u      0.000s      0.003w     13 calls
Grad: V T Perturb                   :      0.083u      0.000s      0.052w      1 calls
Grad: S                             :      0.000u      0.000s      0.001w      1 calls
Grad: JK                            :      1.883u      0.000s      1.134w      1 calls
| JKGrad: Amn                       :      0.300u      0.000s      0.174w      1 calls
| JKGrad: Awmn                      :      0.000u      0.000s      0.000w      1 calls
| JKGrad: AB                        :      0.267u      0.000s      0.165w      1 calls
| JKGrad: UV                        :      0.000u      0.000s      0.000w      1 calls
| JKGrad: ABx                       :      0.133u      0.000s      0.078w      1 calls
| JKGrad: Amnx                      :      1.167u      0.000s      0.702w      1 calls
Grad: XC                            :      1.400u      0.017s      0.844w      1 calls
| Properties                        :      0.467u      0.000s      0.356w   2976 calls
| Functional                        :      0.317u      0.017s      0.178w   2976 calls
| V_xc gradient                     :      0.617u      0.000s      0.305w   2976 calls

**************************************************************************************

Host: aaojha

Timers On : Fri May 14 09:56:45 2021
Timers Off: Fri May 14 09:56:55 2021

Wall Time:        9.97 seconds

                                                       Time (seconds)
Module                                       User      System        Wall        Calls
V: Grid                             :      1.250u      0.000s      0.750w      1 calls
DFH: sparsity prep                  :      0.017u      0.000s      0.013w      1 calls
DFH: initialize()                   :      0.633u      0.017s      0.397w      1 calls
DFH: AO Construction                :      0.267u      0.000s      0.158w      1 calls
DFH: AO-Met. Contraction            :      0.067u      0.000s      0.049w      1 calls
HF: Form core H                     :      0.000u      0.000s      0.001w      1 calls
HF: Form S/X                        :      0.000u      0.000s      0.000w      1 calls
HF: Guess                           :      0.267u      0.000s      0.159w      1 calls
SAD Guess                           :      0.267u      0.000s      0.152w      1 calls
HF: Form G                          :      8.917u      0.167s      5.450w     15 calls
RV: Form V                          :      8.867u      0.167s      5.426w     15 calls
Properties                          :      2.667u      0.067s      1.618w  47440 calls
Functional                          :      4.667u      0.033s      2.839w  47440 calls
V_xc                                :      2.233u      0.067s      1.439w  44475 calls
JK: D                               :      0.000u      0.000s      0.000w     15 calls
JK: USO2AO                          :      0.000u      0.000s      0.000w     15 calls
JK: JK                              :      0.050u      0.000s      0.022w     15 calls
DFH: compute_JK()                   :      0.050u      0.000s      0.022w     15 calls
DFH: Grabbing AOs                   :      0.000u      0.000s      0.000w     15 calls
DFH: compute_J                      :      0.050u      0.000s      0.022w     15 calls
JK: AO2USO                          :      0.000u      0.000s      0.000w     15 calls
HF: Form F                          :      0.000u      0.000s      0.000w     15 calls
HF: Form D                          :      0.000u      0.000s      0.000w     15 calls
HF: DIIS                            :      0.017u      0.000s      0.007w     14 calls
DIISManager::add_entry              :      0.000u      0.000s      0.001w     14 calls
DIISManager::extrapolate            :      0.017u      0.000s      0.002w     14 calls
bMatrix setup                       :      0.000u      0.000s      0.001w     14 calls
bMatrix pseudoinverse               :      0.000u      0.000s      0.001w     14 calls
New vector                          :      0.017u      0.000s      0.000w     14 calls
HF: Form C                          :      0.000u      0.000s      0.003w     14 calls
Grad: V T Perturb                   :      0.100u      0.000s      0.052w      1 calls
Grad: S                             :      0.000u      0.000s      0.001w      1 calls
Grad: JK                            :      1.883u      0.000s      1.146w      1 calls
JKGrad: Amn                         :      0.300u      0.000s      0.177w      1 calls
JKGrad: Awmn                        :      0.000u      0.000s      0.000w      1 calls
JKGrad: AB                          :      0.283u      0.000s      0.173w      1 calls
JKGrad: UV                          :      0.000u      0.000s      0.000w      1 calls
JKGrad: ABx                         :      0.117u      0.000s      0.075w      1 calls
JKGrad: Amnx                        :      1.167u      0.000s      0.699w      1 calls
Grad: XC                            :      1.400u      0.000s      0.844w      1 calls
V_xc gradient                       :      0.483u      0.000s      0.302w   2965 calls

--------------------------------------------------------------------------------------
V: Grid                             :      1.250u      0.000s      0.750w      1 calls
DFH: sparsity prep                  :      0.017u      0.000s      0.013w      1 calls
DFH: initialize()                   :      0.633u      0.017s      0.397w      1 calls
| DFH: AO Construction              :      0.267u      0.000s      0.158w      1 calls
| DFH: AO-Met. Contraction          :      0.067u      0.000s      0.049w      1 calls
HF: Form core H                     :      0.000u      0.000s      0.001w      1 calls
HF: Form S/X                        :      0.000u      0.000s      0.000w      1 calls
HF: Guess                           :      0.267u      0.000s      0.159w      1 calls
| SAD Guess                         :      0.267u      0.000s      0.152w      1 calls
HF: Form G                          :      8.917u      0.167s      5.450w     15 calls
| RV: Form V                        :      8.867u      0.167s      5.426w     15 calls
| | Properties                      :      2.117u      0.067s      1.261w  44475 calls
| | Functional                      :      4.300u      0.033s      2.660w  44475 calls
| | V_xc                            :      2.233u      0.067s      1.439w  44475 calls
| JK: D                             :      0.000u      0.000s      0.000w     15 calls
| JK: USO2AO                        :      0.000u      0.000s      0.000w     15 calls
| JK: JK                            :      0.050u      0.000s      0.022w     15 calls
| | DFH: compute_JK()               :      0.050u      0.000s      0.022w     15 calls
| | | DFH: Grabbing AOs             :      0.000u      0.000s      0.000w     15 calls
| | | DFH: compute_J                :      0.050u      0.000s      0.022w     15 calls
| JK: AO2USO                        :      0.000u      0.000s      0.000w     15 calls
HF: Form F                          :      0.000u      0.000s      0.000w     15 calls
HF: Form D                          :      0.000u      0.000s      0.000w     15 calls
HF: DIIS                            :      0.017u      0.000s      0.007w     14 calls
| DIISManager::add_entry            :      0.000u      0.000s      0.001w     14 calls
| DIISManager::extrapolate          :      0.017u      0.000s      0.002w     14 calls
| | bMatrix setup                   :      0.000u      0.000s      0.001w     14 calls
| | bMatrix pseudoinverse           :      0.000u      0.000s      0.001w     14 calls
| | New vector                      :      0.017u      0.000s      0.000w     14 calls
HF: Form C                          :      0.000u      0.000s      0.003w     14 calls
Grad: V T Perturb                   :      0.100u      0.000s      0.052w      1 calls
Grad: S                             :      0.000u      0.000s      0.001w      1 calls
Grad: JK                            :      1.883u      0.000s      1.146w      1 calls
| JKGrad: Amn                       :      0.300u      0.000s      0.177w      1 calls
| JKGrad: Awmn                      :      0.000u      0.000s      0.000w      1 calls
| JKGrad: AB                        :      0.283u      0.000s      0.173w      1 calls
| JKGrad: UV                        :      0.000u      0.000s      0.000w      1 calls
| JKGrad: ABx                       :      0.117u      0.000s      0.075w      1 calls
| JKGrad: Amnx                      :      1.167u      0.000s      0.699w      1 calls
Grad: XC                            :      1.400u      0.000s      0.844w      1 calls
| Properties                        :      0.550u      0.000s      0.357w   2965 calls
| Functional                        :      0.367u      0.000s      0.180w   2965 calls
| V_xc gradient                     :      0.483u      0.000s      0.302w   2965 calls

**************************************************************************************

Host: aaojha

Timers On : Fri May 14 09:56:55 2021
Timers Off: Fri May 14 09:57:05 2021

Wall Time:        9.62 seconds

                                                       Time (seconds)
Module                                       User      System        Wall        Calls
V: Grid                             :      1.267u      0.000s      0.763w      1 calls
DFH: sparsity prep                  :      0.017u      0.000s      0.013w      1 calls
DFH: initialize()                   :      0.633u      0.033s      0.396w      1 calls
DFH: AO Construction                :      0.267u      0.000s      0.158w      1 calls
DFH: AO-Met. Contraction            :      0.067u      0.017s      0.048w      1 calls
HF: Form core H                     :      0.000u      0.000s      0.000w      1 calls
HF: Form S/X                        :      0.000u      0.017s      0.000w      1 calls
HF: Guess                           :      0.267u      0.000s      0.161w      1 calls
SAD Guess                           :      0.250u      0.000s      0.154w      1 calls
HF: Form G                          :      8.317u      0.117s      5.072w     14 calls
RV: Form V                          :      8.267u      0.117s      5.050w     14 calls
Properties                          :      2.550u      0.017s      1.527w  44400 calls
Functional                          :      4.717u      0.050s      2.657w  44400 calls
V_xc                                :      2.033u      0.050s      1.338w  41440 calls
JK: D                               :      0.000u      0.000s      0.000w     14 calls
JK: USO2AO                          :      0.000u      0.000s      0.000w     14 calls
JK: JK                              :      0.050u      0.000s      0.021w     14 calls
DFH: compute_JK()                   :      0.050u      0.000s      0.021w     14 calls
DFH: Grabbing AOs                   :      0.000u      0.000s      0.000w     14 calls
DFH: compute_J                      :      0.050u      0.000s      0.020w     14 calls
JK: AO2USO                          :      0.000u      0.000s      0.000w     14 calls
HF: Form F                          :      0.000u      0.000s      0.000w     14 calls
HF: Form D                          :      0.000u      0.000s      0.000w     14 calls
HF: DIIS                            :      0.017u      0.000s      0.006w     13 calls
DIISManager::add_entry              :      0.000u      0.000s      0.001w     13 calls
DIISManager::extrapolate            :      0.000u      0.000s      0.001w     13 calls
bMatrix setup                       :      0.000u      0.000s      0.001w     13 calls
bMatrix pseudoinverse               :      0.000u      0.000s      0.000w     13 calls
New vector                          :      0.000u      0.000s      0.000w     13 calls
HF: Form C                          :      0.017u      0.000s      0.003w     13 calls
Grad: V T Perturb                   :      0.083u      0.000s      0.052w      1 calls
Grad: S                             :      0.000u      0.000s      0.001w      1 calls
Grad: JK                            :      1.917u      0.000s      1.143w      1 calls
JKGrad: Amn                         :      0.283u      0.000s      0.173w      1 calls
JKGrad: Awmn                        :      0.000u      0.000s      0.000w      1 calls
JKGrad: AB                          :      0.283u      0.000s      0.169w      1 calls
JKGrad: UV                          :      0.000u      0.000s      0.000w      1 calls
JKGrad: ABx                         :      0.117u      0.000s      0.075w      1 calls
JKGrad: Amnx                        :      1.200u      0.000s      0.711w      1 calls
Grad: XC                            :      1.383u      0.017s      0.842w      1 calls
V_xc gradient                       :      0.267u      0.017s      0.304w   2960 calls

--------------------------------------------------------------------------------------
V: Grid                             :      1.267u      0.000s      0.763w      1 calls
DFH: sparsity prep                  :      0.017u      0.000s      0.013w      1 calls
DFH: initialize()                   :      0.633u      0.033s      0.396w      1 calls
| DFH: AO Construction              :      0.267u      0.000s      0.158w      1 calls
| DFH: AO-Met. Contraction          :      0.067u      0.017s      0.048w      1 calls
HF: Form core H                     :      0.000u      0.000s      0.000w      1 calls
HF: Form S/X                        :      0.000u      0.017s      0.000w      1 calls
HF: Guess                           :      0.267u      0.000s      0.161w      1 calls
| SAD Guess                         :      0.250u      0.000s      0.154w      1 calls
HF: Form G                          :      8.317u      0.117s      5.072w     14 calls
| RV: Form V                        :      8.267u      0.117s      5.050w     14 calls
| | Properties                      :      1.883u      0.017s      1.170w  41440 calls
| | Functional                      :      4.283u      0.050s      2.480w  41440 calls
| | V_xc                            :      2.033u      0.050s      1.338w  41440 calls
| JK: D                             :      0.000u      0.000s      0.000w     14 calls
| JK: USO2AO                        :      0.000u      0.000s      0.000w     14 calls
| JK: JK                            :      0.050u      0.000s      0.021w     14 calls
| | DFH: compute_JK()               :      0.050u      0.000s      0.021w     14 calls
| | | DFH: Grabbing AOs             :      0.000u      0.000s      0.000w     14 calls
| | | DFH: compute_J                :      0.050u      0.000s      0.020w     14 calls
| JK: AO2USO                        :      0.000u      0.000s      0.000w     14 calls
HF: Form F                          :      0.000u      0.000s      0.000w     14 calls
HF: Form D                          :      0.000u      0.000s      0.000w     14 calls
HF: DIIS                            :      0.017u      0.000s      0.006w     13 calls
| DIISManager::add_entry            :      0.000u      0.000s      0.001w     13 calls
| DIISManager::extrapolate          :      0.000u      0.000s      0.001w     13 calls
| | bMatrix setup                   :      0.000u      0.000s      0.001w     13 calls
| | bMatrix pseudoinverse           :      0.000u      0.000s      0.000w     13 calls
| | New vector                      :      0.000u      0.000s      0.000w     13 calls
HF: Form C                          :      0.017u      0.000s      0.003w     13 calls
Grad: V T Perturb                   :      0.083u      0.000s      0.052w      1 calls
Grad: S                             :      0.000u      0.000s      0.001w      1 calls
Grad: JK                            :      1.917u      0.000s      1.143w      1 calls
| JKGrad: Amn                       :      0.283u      0.000s      0.173w      1 calls
| JKGrad: Awmn                      :      0.000u      0.000s      0.000w      1 calls
| JKGrad: AB                        :      0.283u      0.000s      0.169w      1 calls
| JKGrad: UV                        :      0.000u      0.000s      0.000w      1 calls
| JKGrad: ABx                       :      0.117u      0.000s      0.075w      1 calls
| JKGrad: Amnx                      :      1.200u      0.000s      0.711w      1 calls
Grad: XC                            :      1.383u      0.017s      0.842w      1 calls
| Properties                        :      0.667u      0.000s      0.357w   2960 calls
| Functional                        :      0.433u      0.000s      0.177w   2960 calls
| V_xc gradient                     :      0.267u      0.017s      0.304w   2960 calls

**************************************************************************************

Host: aaojha

Timers On : Fri May 14 09:57:05 2021
Timers Off: Fri May 14 09:57:15 2021

Wall Time:        9.57 seconds

                                                       Time (seconds)
Module                                       User      System        Wall        Calls
V: Grid                             :      1.233u      0.017s      0.752w      1 calls
DFH: sparsity prep                  :      0.033u      0.000s      0.013w      1 calls
DFH: initialize()                   :      0.617u      0.033s      0.396w      1 calls
DFH: AO Construction                :      0.250u      0.000s      0.157w      1 calls
DFH: AO-Met. Contraction            :      0.067u      0.017s      0.048w      1 calls
HF: Form core H                     :      0.000u      0.000s      0.000w      1 calls
HF: Form S/X                        :      0.000u      0.000s      0.000w      1 calls
HF: Guess                           :      0.267u      0.000s      0.161w      1 calls
SAD Guess                           :      0.250u      0.000s      0.153w      1 calls
HF: Form G                          :      8.300u      0.117s      5.055w     14 calls
RV: Form V                          :      8.267u      0.117s      5.033w     14 calls
Properties                          :      2.333u      0.067s      1.521w  44385 calls
Functional                          :      4.300u      0.033s      2.639w  44385 calls
V_xc                                :      2.250u      0.033s      1.342w  41426 calls
JK: D                               :      0.000u      0.000s      0.000w     14 calls
JK: USO2AO                          :      0.000u      0.000s      0.000w     14 calls
JK: JK                              :      0.033u      0.000s      0.021w     14 calls
DFH: compute_JK()                   :      0.033u      0.000s      0.021w     14 calls
DFH: Grabbing AOs                   :      0.000u      0.000s      0.000w     14 calls
DFH: compute_J                      :      0.033u      0.000s      0.020w     14 calls
JK: AO2USO                          :      0.000u      0.000s      0.000w     14 calls
HF: Form F                          :      0.000u      0.000s      0.000w     14 calls
HF: Form D                          :      0.000u      0.000s      0.000w     14 calls
HF: DIIS                            :      0.000u      0.000s      0.006w     13 calls
DIISManager::add_entry              :      0.000u      0.000s      0.001w     13 calls
DIISManager::extrapolate            :      0.000u      0.000s      0.001w     13 calls
bMatrix setup                       :      0.000u      0.000s      0.001w     13 calls
bMatrix pseudoinverse               :      0.000u      0.000s      0.000w     13 calls
New vector                          :      0.000u      0.000s      0.000w     13 calls
HF: Form C                          :      0.000u      0.000s      0.003w     13 calls
Grad: V T Perturb                   :      0.100u      0.000s      0.052w      1 calls
Grad: S                             :      0.000u      0.000s      0.001w      1 calls
Grad: JK                            :      1.883u      0.000s      1.131w      1 calls
JKGrad: Amn                         :      0.283u      0.000s      0.174w      1 calls
JKGrad: Awmn                        :      0.000u      0.000s      0.000w      1 calls
JKGrad: AB                          :      0.283u      0.000s      0.169w      1 calls
JKGrad: UV                          :      0.000u      0.000s      0.000w      1 calls
JKGrad: ABx                         :      0.133u      0.000s      0.075w      1 calls
JKGrad: Amnx                        :      1.167u      0.000s      0.699w      1 calls
Grad: XC                            :      1.383u      0.017s      0.839w      1 calls
V_xc gradient                       :      0.617u      0.000s      0.304w   2959 calls

--------------------------------------------------------------------------------------
V: Grid                             :      1.233u      0.017s      0.752w      1 calls
DFH: sparsity prep                  :      0.033u      0.000s      0.013w      1 calls
DFH: initialize()                   :      0.617u      0.033s      0.396w      1 calls
| DFH: AO Construction              :      0.250u      0.000s      0.157w      1 calls
| DFH: AO-Met. Contraction          :      0.067u      0.017s      0.048w      1 calls
HF: Form core H                     :      0.000u      0.000s      0.000w      1 calls
HF: Form S/X                        :      0.000u      0.000s      0.000w      1 calls
HF: Guess                           :      0.267u      0.000s      0.161w      1 calls
| SAD Guess                         :      0.250u      0.000s      0.153w      1 calls
HF: Form G                          :      8.300u      0.117s      5.055w     14 calls
| RV: Form V                        :      8.267u      0.117s      5.033w     14 calls
| | Properties                      :      1.767u      0.050s      1.166w  41426 calls
| | Functional                      :      4.100u      0.033s      2.463w  41426 calls
| | V_xc                            :      2.250u      0.033s      1.342w  41426 calls
| JK: D                             :      0.000u      0.000s      0.000w     14 calls
| JK: USO2AO                        :      0.000u      0.000s      0.000w     14 calls
| JK: JK                            :      0.033u      0.000s      0.021w     14 calls
| | DFH: compute_JK()               :      0.033u      0.000s      0.021w     14 calls
| | | DFH: Grabbing AOs             :      0.000u      0.000s      0.000w     14 calls
| | | DFH: compute_J                :      0.033u      0.000s      0.020w     14 calls
| JK: AO2USO                        :      0.000u      0.000s      0.000w     14 calls
HF: Form F                          :      0.000u      0.000s      0.000w     14 calls
HF: Form D                          :      0.000u      0.000s      0.000w     14 calls
HF: DIIS                            :      0.000u      0.000s      0.006w     13 calls
| DIISManager::add_entry            :      0.000u      0.000s      0.001w     13 calls
| DIISManager::extrapolate          :      0.000u      0.000s      0.001w     13 calls
| | bMatrix setup                   :      0.000u      0.000s      0.001w     13 calls
| | bMatrix pseudoinverse           :      0.000u      0.000s      0.000w     13 calls
| | New vector                      :      0.000u      0.000s      0.000w     13 calls
HF: Form C                          :      0.000u      0.000s      0.003w     13 calls
Grad: V T Perturb                   :      0.100u      0.000s      0.052w      1 calls
Grad: S                             :      0.000u      0.000s      0.001w      1 calls
Grad: JK                            :      1.883u      0.000s      1.131w      1 calls
| JKGrad: Amn                       :      0.283u      0.000s      0.174w      1 calls
| JKGrad: Awmn                      :      0.000u      0.000s      0.000w      1 calls
| JKGrad: AB                        :      0.283u      0.000s      0.169w      1 calls
| JKGrad: UV                        :      0.000u      0.000s      0.000w      1 calls
| JKGrad: ABx                       :      0.133u      0.000s      0.075w      1 calls
| JKGrad: Amnx                      :      1.167u      0.000s      0.699w      1 calls
Grad: XC                            :      1.383u      0.017s      0.839w      1 calls
| Properties                        :      0.567u      0.017s      0.355w   2959 calls
| Functional                        :      0.200u      0.000s      0.176w   2959 calls
| V_xc gradient                     :      0.617u      0.000s      0.304w   2959 calls

**************************************************************************************

Host: aaojha

Timers On : Fri May 14 09:57:15 2021
Timers Off: Fri May 14 09:57:25 2021

Wall Time:        9.95 seconds

                                                       Time (seconds)
Module                                       User      System        Wall        Calls
V: Grid                             :      1.233u      0.017s      0.750w      1 calls
DFH: sparsity prep                  :      0.017u      0.000s      0.013w      1 calls
DFH: initialize()                   :      0.650u      0.017s      0.397w      1 calls
DFH: AO Construction                :      0.267u      0.000s      0.158w      1 calls
DFH: AO-Met. Contraction            :      0.067u      0.000s      0.046w      1 calls
HF: Form core H                     :      0.000u      0.000s      0.002w      1 calls
HF: Form S/X                        :      0.000u      0.000s      0.000w      1 calls
HF: Guess                           :      0.267u      0.000s      0.159w      1 calls
SAD Guess                           :      0.250u      0.000s      0.152w      1 calls
HF: Form G                          :      8.967u      0.100s      5.445w     15 calls
RV: Form V                          :      8.917u      0.100s      5.421w     15 calls
Properties                          :      2.683u      0.033s      1.611w  47472 calls
Functional                          :      4.850u      0.050s      2.838w  47472 calls
V_xc                                :      2.233u      0.033s      1.438w  44505 calls
JK: D                               :      0.000u      0.000s      0.000w     15 calls
JK: USO2AO                          :      0.000u      0.000s      0.000w     15 calls
JK: JK                              :      0.050u      0.000s      0.023w     15 calls
DFH: compute_JK()                   :      0.050u      0.000s      0.023w     15 calls
DFH: Grabbing AOs                   :      0.000u      0.000s      0.000w     15 calls
DFH: compute_J                      :      0.050u      0.000s      0.023w     15 calls
JK: AO2USO                          :      0.000u      0.000s      0.000w     15 calls
HF: Form F                          :      0.000u      0.000s      0.000w     15 calls
HF: Form D                          :      0.000u      0.000s      0.000w     15 calls
HF: DIIS                            :      0.017u      0.000s      0.007w     14 calls
DIISManager::add_entry              :      0.000u      0.000s      0.001w     14 calls
DIISManager::extrapolate            :      0.000u      0.000s      0.002w     14 calls
bMatrix setup                       :      0.000u      0.000s      0.001w     14 calls
bMatrix pseudoinverse               :      0.000u      0.000s      0.001w     14 calls
New vector                          :      0.000u      0.000s      0.000w     14 calls
HF: Form C                          :      0.000u      0.000s      0.003w     14 calls
Grad: V T Perturb                   :      0.083u      0.000s      0.051w      1 calls
Grad: S                             :      0.000u      0.000s      0.001w      1 calls
Grad: JK                            :      1.883u      0.000s      1.132w      1 calls
JKGrad: Amn                         :      0.300u      0.000s      0.177w      1 calls
JKGrad: Awmn                        :      0.000u      0.000s      0.000w      1 calls
JKGrad: AB                          :      0.283u      0.000s      0.172w      1 calls
JKGrad: UV                          :      0.000u      0.000s      0.000w      1 calls
JKGrad: ABx                         :      0.133u      0.000s      0.075w      1 calls
JKGrad: Amnx                        :      1.150u      0.000s      0.693w      1 calls
Grad: XC                            :      1.383u      0.033s      0.841w      1 calls
V_xc gradient                       :      0.433u      0.017s      0.301w   2967 calls

--------------------------------------------------------------------------------------
V: Grid                             :      1.233u      0.017s      0.750w      1 calls
DFH: sparsity prep                  :      0.017u      0.000s      0.013w      1 calls
DFH: initialize()                   :      0.650u      0.017s      0.397w      1 calls
| DFH: AO Construction              :      0.267u      0.000s      0.158w      1 calls
| DFH: AO-Met. Contraction          :      0.067u      0.000s      0.046w      1 calls
HF: Form core H                     :      0.000u      0.000s      0.002w      1 calls
HF: Form S/X                        :      0.000u      0.000s      0.000w      1 calls
HF: Guess                           :      0.267u      0.000s      0.159w      1 calls
| SAD Guess                         :      0.250u      0.000s      0.152w      1 calls
HF: Form G                          :      8.967u      0.100s      5.445w     15 calls
| RV: Form V                        :      8.917u      0.100s      5.421w     15 calls
| | Properties                      :      2.133u      0.017s      1.255w  44505 calls
| | Functional                      :      4.467u      0.050s      2.660w  44505 calls
| | V_xc                            :      2.233u      0.033s      1.438w  44505 calls
| JK: D                             :      0.000u      0.000s      0.000w     15 calls
| JK: USO2AO                        :      0.000u      0.000s      0.000w     15 calls
| JK: JK                            :      0.050u      0.000s      0.023w     15 calls
| | DFH: compute_JK()               :      0.050u      0.000s      0.023w     15 calls
| | | DFH: Grabbing AOs             :      0.000u      0.000s      0.000w     15 calls
| | | DFH: compute_J                :      0.050u      0.000s      0.023w     15 calls
| JK: AO2USO                        :      0.000u      0.000s      0.000w     15 calls
HF: Form F                          :      0.000u      0.000s      0.000w     15 calls
HF: Form D                          :      0.000u      0.000s      0.000w     15 calls
HF: DIIS                            :      0.017u      0.000s      0.007w     14 calls
| DIISManager::add_entry            :      0.000u      0.000s      0.001w     14 calls
| DIISManager::extrapolate          :      0.000u      0.000s      0.002w     14 calls
| | bMatrix setup                   :      0.000u      0.000s      0.001w     14 calls
| | bMatrix pseudoinverse           :      0.000u      0.000s      0.001w     14 calls
| | New vector                      :      0.000u      0.000s      0.000w     14 calls
HF: Form C                          :      0.000u      0.000s      0.003w     14 calls
Grad: V T Perturb                   :      0.083u      0.000s      0.051w      1 calls
Grad: S                             :      0.000u      0.000s      0.001w      1 calls
Grad: JK                            :      1.883u      0.000s      1.132w      1 calls
| JKGrad: Amn                       :      0.300u      0.000s      0.177w      1 calls
| JKGrad: Awmn                      :      0.000u      0.000s      0.000w      1 calls
| JKGrad: AB                        :      0.283u      0.000s      0.172w      1 calls
| JKGrad: UV                        :      0.000u      0.000s      0.000w      1 calls
| JKGrad: ABx                       :      0.133u      0.000s      0.075w      1 calls
| JKGrad: Amnx                      :      1.150u      0.000s      0.693w      1 calls
Grad: XC                            :      1.383u      0.033s      0.841w      1 calls
| Properties                        :      0.550u      0.017s      0.356w   2967 calls
| Functional                        :      0.383u      0.000s      0.177w   2967 calls
| V_xc gradient                     :      0.433u      0.017s      0.301w   2967 calls

**************************************************************************************

Host: aaojha

Timers On : Fri May 14 09:57:25 2021
Timers Off: Fri May 14 09:57:35 2021

Wall Time:        9.91 seconds

                                                       Time (seconds)
Module                                       User      System        Wall        Calls
V: Grid                             :      1.200u      0.033s      0.741w      1 calls
DFH: sparsity prep                  :      0.033u      0.000s      0.013w      1 calls
DFH: initialize()                   :      0.633u      0.050s      0.405w      1 calls
DFH: AO Construction                :      0.267u      0.017s      0.163w      1 calls
DFH: AO-Met. Contraction            :      0.067u      0.017s      0.048w      1 calls
HF: Form core H                     :      0.000u      0.000s      0.002w      1 calls
HF: Form S/X                        :      0.000u      0.000s      0.000w      1 calls
HF: Guess                           :      0.267u      0.000s      0.159w      1 calls
SAD Guess                           :      0.267u      0.000s      0.152w      1 calls
HF: Form G                          :      8.900u      0.083s      5.398w     15 calls
RV: Form V                          :      8.867u      0.083s      5.374w     15 calls
Properties                          :      2.767u      0.017s      1.604w  47248 calls
Functional                          :      4.700u      0.017s      2.809w  47248 calls
V_xc                                :      2.150u      0.050s      1.429w  44295 calls
JK: D                               :      0.000u      0.000s      0.000w     15 calls
JK: USO2AO                          :      0.000u      0.000s      0.000w     15 calls
JK: JK                              :      0.033u      0.000s      0.023w     15 calls
DFH: compute_JK()                   :      0.033u      0.000s      0.023w     15 calls
DFH: Grabbing AOs                   :      0.000u      0.000s      0.000w     15 calls
DFH: compute_J                      :      0.033u      0.000s      0.023w     15 calls
JK: AO2USO                          :      0.000u      0.000s      0.000w     15 calls
HF: Form F                          :      0.000u      0.000s      0.000w     15 calls
HF: Form D                          :      0.000u      0.000s      0.000w     15 calls
HF: DIIS                            :      0.017u      0.000s      0.007w     14 calls
DIISManager::add_entry              :      0.000u      0.000s      0.001w     14 calls
DIISManager::extrapolate            :      0.000u      0.000s      0.002w     14 calls
bMatrix setup                       :      0.000u      0.000s      0.001w     14 calls
bMatrix pseudoinverse               :      0.000u      0.000s      0.000w     14 calls
New vector                          :      0.000u      0.000s      0.000w     14 calls
HF: Form C                          :      0.017u      0.000s      0.003w     14 calls
Grad: V T Perturb                   :      0.083u      0.000s      0.052w      1 calls
Grad: S                             :      0.000u      0.000s      0.001w      1 calls
Grad: JK                            :      1.883u      0.000s      1.133w      1 calls
JKGrad: Amn                         :      0.283u      0.000s      0.173w      1 calls
JKGrad: Awmn                        :      0.000u      0.000s      0.000w      1 calls
JKGrad: AB                          :      0.300u      0.000s      0.172w      1 calls
JKGrad: UV                          :      0.000u      0.000s      0.000w      1 calls
JKGrad: ABx                         :      0.117u      0.000s      0.075w      1 calls
JKGrad: Amnx                        :      1.167u      0.000s      0.699w      1 calls
Grad: XC                            :      1.383u      0.000s      0.834w      1 calls
V_xc gradient                       :      0.550u      0.000s      0.298w   2953 calls

--------------------------------------------------------------------------------------
V: Grid                             :      1.200u      0.033s      0.741w      1 calls
DFH: sparsity prep                  :      0.033u      0.000s      0.013w      1 calls
DFH: initialize()                   :      0.633u      0.050s      0.405w      1 calls
| DFH: AO Construction              :      0.267u      0.017s      0.163w      1 calls
| DFH: AO-Met. Contraction          :      0.067u      0.017s      0.048w      1 calls
HF: Form core H                     :      0.000u      0.000s      0.002w      1 calls
HF: Form S/X                        :      0.000u      0.000s      0.000w      1 calls
HF: Guess                           :      0.267u      0.000s      0.159w      1 calls
| SAD Guess                         :      0.267u      0.000s      0.152w      1 calls
HF: Form G                          :      8.900u      0.083s      5.398w     15 calls
| RV: Form V                        :      8.867u      0.083s      5.374w     15 calls
| | Properties                      :      2.250u      0.017s      1.249w  44295 calls
| | Functional                      :      4.383u      0.017s      2.632w  44295 calls
| | V_xc                            :      2.150u      0.050s      1.429w  44295 calls
| JK: D                             :      0.000u      0.000s      0.000w     15 calls
| JK: USO2AO                        :      0.000u      0.000s      0.000w     15 calls
| JK: JK                            :      0.033u      0.000s      0.023w     15 calls
| | DFH: compute_JK()               :      0.033u      0.000s      0.023w     15 calls
| | | DFH: Grabbing AOs             :      0.000u      0.000s      0.000w     15 calls
| | | DFH: compute_J                :      0.033u      0.000s      0.023w     15 calls
| JK: AO2USO                        :      0.000u      0.000s      0.000w     15 calls
HF: Form F                          :      0.000u      0.000s      0.000w     15 calls
HF: Form D                          :      0.000u      0.000s      0.000w     15 calls
HF: DIIS                            :      0.017u      0.000s      0.007w     14 calls
| DIISManager::add_entry            :      0.000u      0.000s      0.001w     14 calls
| DIISManager::extrapolate          :      0.000u      0.000s      0.002w     14 calls
| | bMatrix setup                   :      0.000u      0.000s      0.001w     14 calls
| | bMatrix pseudoinverse           :      0.000u      0.000s      0.000w     14 calls
| | New vector                      :      0.000u      0.000s      0.000w     14 calls
HF: Form C                          :      0.017u      0.000s      0.003w     14 calls
Grad: V T Perturb                   :      0.083u      0.000s      0.052w      1 calls
Grad: S                             :      0.000u      0.000s      0.001w      1 calls
Grad: JK                            :      1.883u      0.000s      1.133w      1 calls
| JKGrad: Amn                       :      0.283u      0.000s      0.173w      1 calls
| JKGrad: Awmn                      :      0.000u      0.000s      0.000w      1 calls
| JKGrad: AB                        :      0.300u      0.000s      0.172w      1 calls
| JKGrad: UV                        :      0.000u      0.000s      0.000w      1 calls
| JKGrad: ABx                       :      0.117u      0.000s      0.075w      1 calls
| JKGrad: Amnx                      :      1.167u      0.000s      0.699w      1 calls
Grad: XC                            :      1.383u      0.000s      0.834w      1 calls
| Properties                        :      0.517u      0.000s      0.355w   2953 calls
| Functional                        :      0.317u      0.000s      0.177w   2953 calls
| V_xc gradient                     :      0.550u      0.000s      0.298w   2953 calls

**************************************************************************************

Host: aaojha

Timers On : Fri May 14 09:57:35 2021
Timers Off: Fri May 14 09:57:45 2021

Wall Time:        9.96 seconds

                                                       Time (seconds)
Module                                       User      System        Wall        Calls
V: Grid                             :      1.233u      0.000s      0.746w      1 calls
DFH: sparsity prep                  :      0.017u      0.000s      0.013w      1 calls
DFH: initialize()                   :      0.650u      0.017s      0.400w      1 calls
DFH: AO Construction                :      0.267u      0.000s      0.159w      1 calls
DFH: AO-Met. Contraction            :      0.083u      0.000s      0.048w      1 calls
HF: Form core H                     :      0.000u      0.000s      0.002w      1 calls
HF: Form S/X                        :      0.000u      0.000s      0.000w      1 calls
HF: Guess                           :      0.267u      0.000s      0.160w      1 calls
SAD Guess                           :      0.250u      0.000s      0.153w      1 calls
HF: Form G                          :      8.933u      0.117s      5.442w     15 calls
RV: Form V                          :      8.917u      0.117s      5.419w     15 calls
Properties                          :      2.783u      0.017s      1.603w  47360 calls
Functional                          :      4.583u      0.067s      2.845w  47360 calls
V_xc                                :      2.300u      0.033s      1.434w  44400 calls
JK: D                               :      0.000u      0.000s      0.000w     15 calls
JK: USO2AO                          :      0.000u      0.000s      0.000w     15 calls
JK: JK                              :      0.017u      0.000s      0.022w     15 calls
DFH: compute_JK()                   :      0.017u      0.000s      0.022w     15 calls
DFH: Grabbing AOs                   :      0.000u      0.000s      0.000w     15 calls
DFH: compute_J                      :      0.017u      0.000s      0.022w     15 calls
JK: AO2USO                          :      0.000u      0.000s      0.000w     15 calls
HF: Form F                          :      0.000u      0.000s      0.000w     15 calls
HF: Form D                          :      0.000u      0.000s      0.000w     15 calls
HF: DIIS                            :      0.000u      0.000s      0.007w     14 calls
DIISManager::add_entry              :      0.000u      0.000s      0.001w     14 calls
DIISManager::extrapolate            :      0.000u      0.000s      0.002w     14 calls
bMatrix setup                       :      0.000u      0.000s      0.001w     14 calls
bMatrix pseudoinverse               :      0.000u      0.000s      0.000w     14 calls
New vector                          :      0.000u      0.000s      0.000w     14 calls
HF: Form C                          :      0.017u      0.000s      0.003w     14 calls
Grad: V T Perturb                   :      0.083u      0.000s      0.053w      1 calls
Grad: S                             :      0.017u      0.000s      0.001w      1 calls
Grad: JK                            :      1.867u      0.000s      1.139w      1 calls
JKGrad: Amn                         :      0.283u      0.000s      0.175w      1 calls
JKGrad: Awmn                        :      0.000u      0.000s      0.000w      1 calls
JKGrad: AB                          :      0.283u      0.000s      0.171w      1 calls
JKGrad: UV                          :      0.000u      0.000s      0.000w      1 calls
JKGrad: ABx                         :      0.133u      0.000s      0.075w      1 calls
JKGrad: Amnx                        :      1.150u      0.000s      0.695w      1 calls
Grad: XC                            :      1.400u      0.000s      0.836w      1 calls
V_xc gradient                       :      0.467u      0.000s      0.302w   2960 calls

--------------------------------------------------------------------------------------
V: Grid                             :      1.233u      0.000s      0.746w      1 calls
DFH: sparsity prep                  :      0.017u      0.000s      0.013w      1 calls
DFH: initialize()                   :      0.650u      0.017s      0.400w      1 calls
| DFH: AO Construction              :      0.267u      0.000s      0.159w      1 calls
| DFH: AO-Met. Contraction          :      0.083u      0.000s      0.048w      1 calls
HF: Form core H                     :      0.000u      0.000s      0.002w      1 calls
HF: Form S/X                        :      0.000u      0.000s      0.000w      1 calls
HF: Guess                           :      0.267u      0.000s      0.160w      1 calls
| SAD Guess                         :      0.250u      0.000s      0.153w      1 calls
HF: Form G                          :      8.933u      0.117s      5.442w     15 calls
| RV: Form V                        :      8.917u      0.117s      5.419w     15 calls
| | Properties                      :      2.217u      0.017s      1.250w  44400 calls
| | Functional                      :      4.233u      0.067s      2.668w  44400 calls
| | V_xc                            :      2.300u      0.033s      1.434w  44400 calls
| JK: D                             :      0.000u      0.000s      0.000w     15 calls
| JK: USO2AO                        :      0.000u      0.000s      0.000w     15 calls
| JK: JK                            :      0.017u      0.000s      0.022w     15 calls
| | DFH: compute_JK()               :      0.017u      0.000s      0.022w     15 calls
| | | DFH: Grabbing AOs             :      0.000u      0.000s      0.000w     15 calls
| | | DFH: compute_J                :      0.017u      0.000s      0.022w     15 calls
| JK: AO2USO                        :      0.000u      0.000s      0.000w     15 calls
HF: Form F                          :      0.000u      0.000s      0.000w     15 calls
HF: Form D                          :      0.000u      0.000s      0.000w     15 calls
HF: DIIS                            :      0.000u      0.000s      0.007w     14 calls
| DIISManager::add_entry            :      0.000u      0.000s      0.001w     14 calls
| DIISManager::extrapolate          :      0.000u      0.000s      0.002w     14 calls
| | bMatrix setup                   :      0.000u      0.000s      0.001w     14 calls
| | bMatrix pseudoinverse           :      0.000u      0.000s      0.000w     14 calls
| | New vector                      :      0.000u      0.000s      0.000w     14 calls
HF: Form C                          :      0.017u      0.000s      0.003w     14 calls
Grad: V T Perturb                   :      0.083u      0.000s      0.053w      1 calls
Grad: S                             :      0.017u      0.000s      0.001w      1 calls
Grad: JK                            :      1.867u      0.000s      1.139w      1 calls
| JKGrad: Amn                       :      0.283u      0.000s      0.175w      1 calls
| JKGrad: Awmn                      :      0.000u      0.000s      0.000w      1 calls
| JKGrad: AB                        :      0.283u      0.000s      0.171w      1 calls
| JKGrad: UV                        :      0.000u      0.000s      0.000w      1 calls
| JKGrad: ABx                       :      0.133u      0.000s      0.075w      1 calls
| JKGrad: Amnx                      :      1.150u      0.000s      0.695w      1 calls
Grad: XC                            :      1.400u      0.000s      0.836w      1 calls
| Properties                        :      0.567u      0.000s      0.353w   2960 calls
| Functional                        :      0.350u      0.000s      0.177w   2960 calls
| V_xc gradient                     :      0.467u      0.000s      0.302w   2960 calls

**************************************************************************************

Host: aaojha

Timers On : Fri May 14 09:57:45 2021
Timers Off: Fri May 14 09:57:55 2021

Wall Time:        9.96 seconds

                                                       Time (seconds)
Module                                       User      System        Wall        Calls
V: Grid                             :      1.233u      0.033s      0.748w      1 calls
DFH: sparsity prep                  :      0.017u      0.000s      0.013w      1 calls
DFH: initialize()                   :      0.650u      0.033s      0.403w      1 calls
DFH: AO Construction                :      0.267u      0.000s      0.160w      1 calls
DFH: AO-Met. Contraction            :      0.083u      0.017s      0.048w      1 calls
HF: Form core H                     :      0.000u      0.000s      0.002w      1 calls
HF: Form S/X                        :      0.000u      0.000s      0.000w      1 calls
HF: Guess                           :      0.267u      0.000s      0.159w      1 calls
SAD Guess                           :      0.250u      0.000s      0.152w      1 calls
HF: Form G                          :      8.967u      0.133s      5.439w     15 calls
RV: Form V                          :      8.917u      0.133s      5.416w     15 calls
Properties                          :      2.550u      0.050s      1.612w  47440 calls
Functional                          :      4.617u      0.067s      2.825w  47440 calls
V_xc                                :      2.533u      0.017s      1.447w  44475 calls
JK: D                               :      0.000u      0.000s      0.000w     15 calls
JK: USO2AO                          :      0.000u      0.000s      0.000w     15 calls
JK: JK                              :      0.050u      0.000s      0.022w     15 calls
DFH: compute_JK()                   :      0.050u      0.000s      0.022w     15 calls
DFH: Grabbing AOs                   :      0.000u      0.000s      0.000w     15 calls
DFH: compute_J                      :      0.050u      0.000s      0.022w     15 calls
JK: AO2USO                          :      0.000u      0.000s      0.000w     15 calls
HF: Form F                          :      0.000u      0.000s      0.000w     15 calls
HF: Form D                          :      0.000u      0.000s      0.000w     15 calls
HF: DIIS                            :      0.000u      0.000s      0.007w     14 calls
DIISManager::add_entry              :      0.000u      0.000s      0.001w     14 calls
DIISManager::extrapolate            :      0.000u      0.000s      0.002w     14 calls
bMatrix setup                       :      0.000u      0.000s      0.001w     14 calls
bMatrix pseudoinverse               :      0.000u      0.000s      0.001w     14 calls
New vector                          :      0.000u      0.000s      0.000w     14 calls
HF: Form C                          :      0.000u      0.000s      0.003w     14 calls
Grad: V T Perturb                   :      0.100u      0.000s      0.053w      1 calls
Grad: S                             :      0.000u      0.000s      0.001w      1 calls
Grad: JK                            :      1.900u      0.000s      1.149w      1 calls
JKGrad: Amn                         :      0.300u      0.000s      0.175w      1 calls
JKGrad: Awmn                        :      0.000u      0.000s      0.000w      1 calls
JKGrad: AB                          :      0.283u      0.000s      0.172w      1 calls
JKGrad: UV                          :      0.000u      0.000s      0.000w      1 calls
JKGrad: ABx                         :      0.117u      0.000s      0.077w      1 calls
JKGrad: Amnx                        :      1.183u      0.000s      0.703w      1 calls
Grad: XC                            :      1.383u      0.000s      0.837w      1 calls
V_xc gradient                       :      0.483u      0.000s      0.301w   2965 calls

--------------------------------------------------------------------------------------
V: Grid                             :      1.233u      0.033s      0.748w      1 calls
DFH: sparsity prep                  :      0.017u      0.000s      0.013w      1 calls
DFH: initialize()                   :      0.650u      0.033s      0.403w      1 calls
| DFH: AO Construction              :      0.267u      0.000s      0.160w      1 calls
| DFH: AO-Met. Contraction          :      0.083u      0.017s      0.048w      1 calls
HF: Form core H                     :      0.000u      0.000s      0.002w      1 calls
HF: Form S/X                        :      0.000u      0.000s      0.000w      1 calls
HF: Guess                           :      0.267u      0.000s      0.159w      1 calls
| SAD Guess                         :      0.250u      0.000s      0.152w      1 calls
HF: Form G                          :      8.967u      0.133s      5.439w     15 calls
| RV: Form V                        :      8.917u      0.133s      5.416w     15 calls
| | Properties                      :      1.900u      0.050s      1.257w  44475 calls
| | Functional                      :      4.367u      0.067s      2.648w  44475 calls
| | V_xc                            :      2.533u      0.017s      1.447w  44475 calls
| JK: D                             :      0.000u      0.000s      0.000w     15 calls
| JK: USO2AO                        :      0.000u      0.000s      0.000w     15 calls
| JK: JK                            :      0.050u      0.000s      0.022w     15 calls
| | DFH: compute_JK()               :      0.050u      0.000s      0.022w     15 calls
| | | DFH: Grabbing AOs             :      0.000u      0.000s      0.000w     15 calls
| | | DFH: compute_J                :      0.050u      0.000s      0.022w     15 calls
| JK: AO2USO                        :      0.000u      0.000s      0.000w     15 calls
HF: Form F                          :      0.000u      0.000s      0.000w     15 calls
HF: Form D                          :      0.000u      0.000s      0.000w     15 calls
HF: DIIS                            :      0.000u      0.000s      0.007w     14 calls
| DIISManager::add_entry            :      0.000u      0.000s      0.001w     14 calls
| DIISManager::extrapolate          :      0.000u      0.000s      0.002w     14 calls
| | bMatrix setup                   :      0.000u      0.000s      0.001w     14 calls
| | bMatrix pseudoinverse           :      0.000u      0.000s      0.001w     14 calls
| | New vector                      :      0.000u      0.000s      0.000w     14 calls
HF: Form C                          :      0.000u      0.000s      0.003w     14 calls
Grad: V T Perturb                   :      0.100u      0.000s      0.053w      1 calls
Grad: S                             :      0.000u      0.000s      0.001w      1 calls
Grad: JK                            :      1.900u      0.000s      1.149w      1 calls
| JKGrad: Amn                       :      0.300u      0.000s      0.175w      1 calls
| JKGrad: Awmn                      :      0.000u      0.000s      0.000w      1 calls
| JKGrad: AB                        :      0.283u      0.000s      0.172w      1 calls
| JKGrad: UV                        :      0.000u      0.000s      0.000w      1 calls
| JKGrad: ABx                       :      0.117u      0.000s      0.077w      1 calls
| JKGrad: Amnx                      :      1.183u      0.000s      0.703w      1 calls
Grad: XC                            :      1.383u      0.000s      0.837w      1 calls
| Properties                        :      0.650u      0.000s      0.355w   2965 calls
| Functional                        :      0.250u      0.000s      0.177w   2965 calls
| V_xc gradient                     :      0.483u      0.000s      0.301w   2965 calls

**************************************************************************************

Host: aaojha

Timers On : Fri May 14 09:57:56 2021
Timers Off: Fri May 14 09:58:06 2021

Wall Time:        9.95 seconds

                                                       Time (seconds)
Module                                       User      System        Wall        Calls
V: Grid                             :      1.233u      0.017s      0.748w      1 calls
DFH: sparsity prep                  :      0.033u      0.000s      0.014w      1 calls
DFH: initialize()                   :      0.650u      0.033s      0.404w      1 calls
DFH: AO Construction                :      0.267u      0.000s      0.163w      1 calls
DFH: AO-Met. Contraction            :      0.083u      0.000s      0.047w      1 calls
HF: Form core H                     :      0.000u      0.000s      0.002w      1 calls
HF: Form S/X                        :      0.000u      0.000s      0.000w      1 calls
HF: Guess                           :      0.267u      0.000s      0.159w      1 calls
SAD Guess                           :      0.267u      0.000s      0.152w      1 calls
HF: Form G                          :      8.883u      0.150s      5.421w     15 calls
RV: Form V                          :      8.850u      0.150s      5.397w     15 calls
Properties                          :      2.717u      0.067s      1.612w  47408 calls
Functional                          :      4.433u      0.067s      2.820w  47408 calls
V_xc                                :      2.417u      0.033s      1.437w  44445 calls
JK: D                               :      0.000u      0.000s      0.000w     15 calls
JK: USO2AO                          :      0.000u      0.000s      0.000w     15 calls
JK: JK                              :      0.033u      0.000s      0.023w     15 calls
DFH: compute_JK()                   :      0.033u      0.000s      0.023w     15 calls
DFH: Grabbing AOs                   :      0.000u      0.000s      0.000w     15 calls
DFH: compute_J                      :      0.033u      0.000s      0.023w     15 calls
JK: AO2USO                          :      0.000u      0.000s      0.000w     15 calls
HF: Form F                          :      0.000u      0.000s      0.000w     15 calls
HF: Form D                          :      0.000u      0.000s      0.000w     15 calls
HF: DIIS                            :      0.000u      0.000s      0.007w     14 calls
[...]
JKGrad: AB                          :      0.283u      0.000s      0.169w      1 calls
JKGrad: UV                          :      0.000u      0.000s      0.000w      1 calls
JKGrad: ABx                         :      0.133u      0.000s      0.075w      1 calls
JKGrad: Amnx                        :      1.150u      0.000s      0.693w      1 calls
Grad: XC                            :      1.400u      0.017s      0.846w      1 calls
V_xc gradient                       :      0.517u      0.000s      0.302w   2963 calls

--------------------------------------------------------------------------------------
V: Grid                             :      1.233u      0.017s      0.748w      1 calls
DFH: sparsity prep                  :      0.033u      0.000s      0.014w      1 calls
DFH: initialize()                   :      0.650u      0.033s      0.404w      1 calls
| DFH: AO Construction              :      0.267u      0.000s      0.163w      1 calls
| DFH: AO-Met. Contraction          :      0.083u      0.000s      0.047w      1 calls
HF: Form core H                     :      0.000u      0.000s      0.002w      1 calls
HF: Form S/X                        :      0.000u      0.000s      0.000w      1 calls
HF: Guess                           :      0.267u      0.000s      0.159w      1 calls
| SAD Guess                         :      0.267u      0.000s      0.152w      1 calls
HF: Form G                          :      8.883u      0.150s      5.421w     15 calls
| RV: Form V                        :      8.850u      0.150s      5.397w     15 calls
| | Properties                      :      2.083u      0.050s      1.254w  44445 calls
| | Functional                      :      4.183u      0.067s      2.641w  44445 calls
| | V_xc                            :      2.417u      0.033s      1.437w  44445 calls
| JK: D                             :      0.000u      0.000s      0.000w     15 calls
| JK: USO2AO                        :      0.000u      0.000s      0.000w     15 calls
| JK: JK                            :      0.033u      0.000s      0.023w     15 calls
| | DFH: compute_JK()               :      0.033u      0.000s      0.023w     15 calls
| | | DFH: Grabbing AOs             :      0.000u      0.000s      0.000w     15 calls
| | | DFH: compute_J                :      0.033u      0.000s      0.023w     15 calls
| JK: AO2USO                        :      0.000u      0.000s      0.000w     15 calls
HF: Form F                          :      0.000u      0.000s      0.000w     15 calls
HF: Form D                          :      0.000u      0.000s      0.000w     15 calls
HF: DIIS                            :      0.000u      0.000s      0.007w     14 calls
| DIISManager::add_entry            :      0.000u      0.000s      0.001w     14 calls
| DIISManager::extrapolate          :      0.000u      0.000s      0.002w     14 calls
| | bMatrix setup                   :      0.000u      0.000s      0.001w     14 calls
| | bMatrix pseudoinverse           :      0.000u      0.000s      0.000w     14 calls
| | New vector                      :      0.000u      0.000s      0.000w     14 calls
HF: Form C                          :      0.033u      0.000s      0.003w     14 calls
Grad: V T Perturb                   :      0.083u      0.000s      0.054w      1 calls
Grad: S                             :      0.000u      0.000s      0.001w      1 calls
Grad: JK                            :      1.883u      0.000s      1.137w      1 calls
| JKGrad: Amn                       :      0.283u      0.000s      0.176w      1 calls
| JKGrad: Awmn                      :      0.000u      0.000s      0.000w      1 calls
| JKGrad: AB                        :      0.283u      0.000s      0.169w      1 calls
| JKGrad: UV                        :      0.000u      0.000s      0.000w      1 calls
| JKGrad: ABx                       :      0.133u      0.000s      0.075w      1 calls
| JKGrad: Amnx                      :      1.150u      0.000s      0.693w      1 calls
Grad: XC                            :      1.400u      0.017s      0.846w      1 calls
| Properties                        :      0.633u      0.017s      0.359w   2963 calls
| Functional                        :      0.250u      0.000s      0.179w   2963 calls
| V_xc gradient                     :      0.517u      0.000s      0.302w   2963 calls

**************************************************************************************

Host: aaojha

Timers On : Fri May 14 09:58:06 2021
Timers Off: Fri May 14 09:58:16 2021

Wall Time:        9.95 seconds

                                                       Time (seconds)
Module                                       User      System        Wall        Calls
V: Grid                             :      1.217u      0.017s      0.742w      1 calls
DFH: sparsity prep                  :      0.017u      0.000s      0.013w      1 calls
DFH: initialize()                   :      0.650u      0.033s      0.401w      1 calls
DFH: AO Construction                :      0.267u      0.017s      0.161w      1 calls
DFH: AO-Met. Contraction            :      0.083u      0.000s      0.047w      1 calls
HF: Form core H                     :      0.000u      0.000s      0.000w      1 calls
HF: Form S/X                        :      0.000u      0.000s      0.000w      1 calls
HF: Guess                           :      0.267u      0.000s      0.163w      1 calls
SAD Guess                           :      0.250u      0.000s      0.156w      1 calls
HF: Form G                          :      8.933u      0.167s      5.445w     15 calls
RV: Form V                          :      8.883u      0.167s      5.422w     15 calls
Properties                          :      2.517u      0.050s      1.618w  47408 calls
Functional                          :      4.717u      0.117s      2.842w  47408 calls
V_xc                                :      2.333u      0.017s      1.436w  44445 calls
JK: D                               :      0.000u      0.000s      0.000w     15 calls
JK: USO2AO                          :      0.000u      0.000s      0.000w     15 calls
JK: JK                              :      0.050u      0.000s      0.022w     15 calls
DFH: compute_JK()                   :      0.050u      0.000s      0.022w     15 calls
DFH: Grabbing AOs                   :      0.000u      0.000s      0.000w     15 calls
DFH: compute_J                      :      0.050u      0.000s      0.022w     15 calls
JK: AO2USO                          :      0.000u      0.000s      0.000w     15 calls
HF: Form F                          :      0.000u      0.000s      0.000w     15 calls
HF: Form D                          :      0.000u      0.000s      0.000w     15 calls
HF: DIIS                            :      0.017u      0.000s      0.016w     14 calls
DIISManager::add_entry              :      0.000u      0.000s      0.001w     14 calls
DIISManager::extrapolate            :      0.017u      0.000s      0.011w     14 calls
bMatrix setup                       :      0.017u      0.000s      0.010w     14 calls
bMatrix pseudoinverse               :      0.000u      0.000s      0.001w     14 calls
New vector                          :      0.000u      0.000s      0.000w     14 calls
HF: Form C                          :      0.000u      0.000s      0.003w     14 calls
Grad: V T Perturb                   :      0.100u      0.000s      0.052w      1 calls
Grad: S                             :      0.000u      0.000s      0.001w      1 calls
Grad: JK                            :      1.900u      0.000s      1.141w      1 calls
JKGrad: Amn                         :      0.283u      0.000s      0.174w      1 calls
JKGrad: Awmn                        :      0.000u      0.000s      0.000w      1 calls
JKGrad: AB                          :      0.300u      0.000s      0.172w      1 calls
JKGrad: UV                          :      0.000u      0.000s      0.000w      1 calls
JKGrad: ABx                         :      0.117u      0.000s      0.077w      1 calls
JKGrad: Amnx                        :      1.183u      0.000s      0.704w      1 calls
Grad: XC                            :      1.383u      0.017s      0.845w      1 calls
V_xc gradient                       :      0.567u      0.000s      0.301w   2963 calls

--------------------------------------------------------------------------------------
V: Grid                             :      1.217u      0.017s      0.742w      1 calls
DFH: sparsity prep                  :      0.017u      0.000s      0.013w      1 calls
DFH: initialize()                   :      0.650u      0.033s      0.401w      1 calls
| DFH: AO Construction              :      0.267u      0.017s      0.161w      1 calls
| DFH: AO-Met. Contraction          :      0.083u      0.000s      0.047w      1 calls
HF: Form core H                     :      0.000u      0.000s      0.000w      1 calls
HF: Form S/X                        :      0.000u      0.000s      0.000w      1 calls
HF: Guess                           :      0.267u      0.000s      0.163w      1 calls
| SAD Guess                         :      0.250u      0.000s      0.156w      1 calls
HF: Form G                          :      8.933u      0.167s      5.445w     15 calls
| RV: Form V                        :      8.883u      0.167s      5.422w     15 calls
| | Properties                      :      1.967u      0.033s      1.260w  44445 calls
| | Functional                      :      4.483u      0.117s      2.662w  44445 calls
| | V_xc                            :      2.333u      0.017s      1.436w  44445 calls
| JK: D                             :      0.000u      0.000s      0.000w     15 calls
| JK: USO2AO                        :      0.000u      0.000s      0.000w     15 calls
| JK: JK                            :      0.050u      0.000s      0.022w     15 calls
| | DFH: compute_JK()               :      0.050u      0.000s      0.022w     15 calls
| | | DFH: Grabbing AOs             :      0.000u      0.000s      0.000w     15 calls
| | | DFH: compute_J                :      0.050u      0.000s      0.022w     15 calls
| JK: AO2USO                        :      0.000u      0.000s      0.000w     15 calls
HF: Form F                          :      0.000u      0.000s      0.000w     15 calls
HF: Form D                          :      0.000u      0.000s      0.000w     15 calls
HF: DIIS                            :      0.017u      0.000s      0.016w     14 calls
| DIISManager::add_entry            :      0.000u      0.000s      0.001w     14 calls
| DIISManager::extrapolate          :      0.017u      0.000s      0.011w     14 calls
| | bMatrix setup                   :      0.017u      0.000s      0.010w     14 calls
| | bMatrix pseudoinverse           :      0.000u      0.000s      0.001w     14 calls
| | New vector                      :      0.000u      0.000s      0.000w     14 calls
HF: Form C                          :      0.000u      0.000s      0.003w     14 calls
Grad: V T Perturb                   :      0.100u      0.000s      0.052w      1 calls
Grad: S                             :      0.000u      0.000s      0.001w      1 calls
Grad: JK                            :      1.900u      0.000s      1.141w      1 calls
| JKGrad: Amn                       :      0.283u      0.000s      0.174w      1 calls
| JKGrad: Awmn                      :      0.000u      0.000s      0.000w      1 calls
| JKGrad: AB                        :      0.300u      0.000s      0.172w      1 calls
| JKGrad: UV                        :      0.000u      0.000s      0.000w      1 calls
| JKGrad: ABx                       :      0.117u      0.000s      0.077w      1 calls
| JKGrad: Amnx                      :      1.183u      0.000s      0.704w      1 calls
Grad: XC                            :      1.383u      0.017s      0.845w      1 calls
| Properties                        :      0.550u      0.017s      0.358w   2963 calls
| Functional                        :      0.233u      0.000s      0.180w   2963 calls
| V_xc gradient                     :      0.567u      0.000s      0.301w   2963 calls

**************************************************************************************

Host: aaojha

Timers On : Fri May 14 09:58:16 2021
Timers Off: Fri May 14 09:58:26 2021

Wall Time:        9.61 seconds

                                                       Time (seconds)
Module                                       User      System        Wall        Calls
V: Grid                             :      1.250u      0.000s      0.752w      1 calls
DFH: sparsity prep                  :      0.017u      0.000s      0.013w      1 calls
DFH: initialize()                   :      0.650u      0.033s      0.399w      1 calls
DFH: AO Construction                :      0.267u      0.000s      0.159w      1 calls
DFH: AO-Met. Contraction            :      0.083u      0.000s      0.047w      1 calls
HF: Form core H                     :      0.000u      0.000s      0.000w      1 calls
HF: Form S/X                        :      0.000u      0.000s      0.000w      1 calls
HF: Guess                           :      0.267u      0.017s      0.160w      1 calls
SAD Guess                           :      0.250u      0.017s      0.153w      1 calls
HF: Form G                          :      8.333u      0.117s      5.066w     14 calls
RV: Form V                          :      8.300u      0.117s      5.044w     14 calls
Properties                          :      2.617u      0.017s      1.523w  44400 calls
Functional                          :      4.333u      0.067s      2.653w  44400 calls
V_xc                                :      2.150u      0.033s      1.340w  41440 calls
JK: D                               :      0.000u      0.000s      0.000w     14 calls
JK: USO2AO                          :      0.000u      0.000s      0.000w     14 calls
JK: JK                              :      0.033u      0.000s      0.021w     14 calls
DFH: compute_JK()                   :      0.033u      0.000s      0.021w     14 calls
DFH: Grabbing AOs                   :      0.000u      0.000s      0.000w     14 calls
DFH: compute_J                      :      0.033u      0.000s      0.021w     14 calls
JK: AO2USO                          :      0.000u      0.000s      0.000w     14 calls
HF: Form F                          :      0.000u      0.000s      0.000w     14 calls
HF: Form D                          :      0.000u      0.000s      0.000w     14 calls
HF: DIIS                            :      0.000u      0.000s      0.006w     13 calls
DIISManager::add_entry              :      0.000u      0.000s      0.001w     13 calls
DIISManager::extrapolate            :      0.000u      0.000s      0.001w     13 calls
bMatrix setup                       :      0.000u      0.000s      0.001w     13 calls
bMatrix pseudoinverse               :      0.000u      0.000s      0.000w     13 calls
New vector                          :      0.000u      0.000s      0.000w     13 calls
HF: Form C                          :      0.017u      0.000s      0.003w     13 calls
Grad: V T Perturb                   :      0.100u      0.000s      0.055w      1 calls
Grad: S                             :      0.000u      0.000s      0.001w      1 calls
Grad: JK                            :      1.883u      0.000s      1.134w      1 calls
JKGrad: Amn                         :      0.300u      0.000s      0.176w      1 calls
JKGrad: Awmn                        :      0.000u      0.000s      0.000w      1 calls
JKGrad: AB                          :      0.283u      0.000s      0.170w      1 calls
JKGrad: UV                          :      0.000u      0.000s      0.000w      1 calls
JKGrad: ABx                         :      0.117u      0.000s      0.075w      1 calls
JKGrad: Amnx                        :      1.167u      0.000s      0.699w      1 calls
Grad: XC                            :      1.400u      0.000s      0.840w      1 calls
V_xc gradient                       :      0.450u      0.000s      0.304w   2960 calls

--------------------------------------------------------------------------------------
V: Grid                             :      1.250u      0.000s      0.752w      1 calls
DFH: sparsity prep                  :      0.017u      0.000s      0.013w      1 calls
DFH: initialize()                   :      0.650u      0.033s      0.399w      1 calls
| DFH: AO Construction              :      0.267u      0.000s      0.159w      1 calls
| DFH: AO-Met. Contraction          :      0.083u      0.000s      0.047w      1 calls
HF: Form core H                     :      0.000u      0.000s      0.000w      1 calls
HF: Form S/X                        :      0.000u      0.000s      0.000w      1 calls
HF: Guess                           :      0.267u      0.017s      0.160w      1 calls
| SAD Guess                         :      0.250u      0.017s      0.153w      1 calls
HF: Form G                          :      8.333u      0.117s      5.066w     14 calls
| RV: Form V                        :      8.300u      0.117s      5.044w     14 calls
| | Properties                      :      2.050u      0.017s      1.169w  41440 calls
| | Functional                      :      3.967u      0.067s      2.476w  41440 calls
| | V_xc                            :      2.150u      0.033s      1.340w  41440 calls
| JK: D                             :      0.000u      0.000s      0.000w     14 calls
| JK: USO2AO                        :      0.000u      0.000s      0.000w     14 calls
| JK: JK                            :      0.033u      0.000s      0.021w     14 calls
| | DFH: compute_JK()               :      0.033u      0.000s      0.021w     14 calls
| | | DFH: Grabbing AOs             :      0.000u      0.000s      0.000w     14 calls
| | | DFH: compute_J                :      0.033u      0.000s      0.021w     14 calls
| JK: AO2USO                        :      0.000u      0.000s      0.000w     14 calls
HF: Form F                          :      0.000u      0.000s      0.000w     14 calls
HF: Form D                          :      0.000u      0.000s      0.000w     14 calls
HF: DIIS                            :      0.000u      0.000s      0.006w     13 calls
| DIISManager::add_entry            :      0.000u      0.000s      0.001w     13 calls
| DIISManager::extrapolate          :      0.000u      0.000s      0.001w     13 calls
| | bMatrix setup                   :      0.000u      0.000s      0.001w     13 calls
| | bMatrix pseudoinverse           :      0.000u      0.000s      0.000w     13 calls
| | New vector                      :      0.000u      0.000s      0.000w     13 calls
HF: Form C                          :      0.017u      0.000s      0.003w     13 calls
Grad: V T Perturb                   :      0.100u      0.000s      0.055w      1 calls
Grad: S                             :      0.000u      0.000s      0.001w      1 calls
Grad: JK                            :      1.883u      0.000s      1.134w      1 calls
| JKGrad: Amn                       :      0.300u      0.000s      0.176w      1 calls
| JKGrad: Awmn                      :      0.000u      0.000s      0.000w      1 calls
| JKGrad: AB                        :      0.283u      0.000s      0.170w      1 calls
| JKGrad: UV                        :      0.000u      0.000s      0.000w      1 calls
| JKGrad: ABx                       :      0.117u      0.000s      0.075w      1 calls
| JKGrad: Amnx                      :      1.167u      0.000s      0.699w      1 calls
Grad: XC                            :      1.400u      0.000s      0.840w      1 calls
| Properties                        :      0.567u      0.000s      0.354w   2960 calls
| Functional                        :      0.367u      0.000s      0.177w   2960 calls
| V_xc gradient                     :      0.450u      0.000s      0.304w   2960 calls

**************************************************************************************
