
    -----------------------------------------------------------------------
          Psi4: An Open-Source Ab Initio Electronic Structure Package
                               Psi4 1.3.2 release

                         Git: Rev {HEAD} ecbda83 


    R. M. Parrish, L. A. Burns, D. G. A. Smith, A. C. Simmonett,
    A. E. DePrince III, E. G. Hohenstein, U. Bozkaya, A. Yu. Sokolov,
    R. Di Remigio, R. M. Richard, J. F. Gonthier, A. M. James,
    H. R. McAlexander, A. Kumar, M. Saitow, X. Wang, B. P. Pritchard,
    P. Verma, H. F. Schaefer III, K. Patkowski, R. A. King, E. F. Valeev,
    F. A. Evangelista, J. M. Turney, T. D. Crawford, and C. D. Sherrill,
    J. Chem. Theory Comput. 13(7) pp 3185--3197 (2017).
    (doi: 10.1021/acs.jctc.7b00174)


                         Additional Contributions by
    P. Kraus, H. Kruse, M. H. Lechner, M. C. Schieber, R. A. Shaw,
    A. Alenaizan, R. Galvelis, Z. L. Glick, S. Lehtola, and J. P. Misiewicz

    -----------------------------------------------------------------------


    Psi4 started on: Friday, 14 May 2021 09:18AM

    Process ID: 31774
    Host:       aaojha
    PSIDATADIR: /home/aaojha/anaconda3/envs/torsiondrive/share/psi4
    Memory:     500.0 MiB
    Threads:    1
    
  ==> Input File <==

--------------------------------------------------------------------------
memory 50 GB
molecule {
1 1
C           0.1700272     0.0001390    -0.0008617
C          -0.5615379    -1.2398691     0.0203831
C          -1.9782087    -1.2330022     0.0211050
C          -2.6912033     0.0018507     0.0007247
C          -1.9780134     1.2365561    -0.0208686
C          -0.5613800     1.2403240    -0.0216354
C           1.6798575    -0.0003783    -0.0006132
N           2.3983471    -1.1828441     0.0198706
N           2.4013219     1.1803447    -0.0231572
H          -0.0398840    -2.2161481     0.0360397
H          -2.5295289    -2.1932636     0.0374904
H          -3.7998981     0.0020127     0.0015238
H          -2.5282734     2.1974495    -0.0370636
H          -0.0387565     2.2160511    -0.0391720
H           3.4497744    -1.1944833     0.0199117
H           1.9044672    -2.1078459     0.0364488
H           3.4527813     1.1893527    -0.0151395
H           1.9098134     2.1067342    -0.0335633
}
set {
basis STO-3G
}
gradient('BLYP')
--------------------------------------------------------------------------

  Memory set to  46.566 GiB by Python driver.
gradient() will perform analytic gradient computation.

*** tstart() called on aaojha
*** at Fri May 14 09:18:55 2021

   => Loading Basis Set <=

    Name: STO-3G
    Role: ORBITAL
    Keyword: BASIS
    atoms 1-7   entry C          line    61 file /home/aaojha/anaconda3/envs/torsiondrive/share/psi4/basis/sto-3g.gbs 
    atoms 8-9   entry N          line    71 file /home/aaojha/anaconda3/envs/torsiondrive/share/psi4/basis/sto-3g.gbs 
    atoms 10-18 entry H          line    19 file /home/aaojha/anaconda3/envs/torsiondrive/share/psi4/basis/sto-3g.gbs 


         ---------------------------------------------------------
                                   SCF
               by Justin Turney, Rob Parrish, Andy Simmonett
                          and Daniel G. A. Smith
                              RKS Reference
                        1 Threads,  47683 MiB Core
         ---------------------------------------------------------

  ==> Geometry <==

    Molecular point group: c1
    Full point group: C1

    Geometry (in Angstrom), charge = 1, multiplicity = 1:

       Center              X                  Y                   Z               Mass       
    ------------   -----------------  -----------------  -----------------  -----------------
         C            0.186883930470    -0.000127784193    -0.000360454991    12.000000000000
         C           -0.544681169530    -1.240135884193     0.020884345009    12.000000000000
         C           -1.961351969530    -1.233268984193     0.021606245009    12.000000000000
         C           -2.674346569530     0.001583915807     0.001225945009    12.000000000000
         C           -1.961156669530     1.236289315807    -0.020367354991    12.000000000000
         C           -0.544523269530     1.240057215807    -0.021134154991    12.000000000000
         C            1.696714230470    -0.000645084193    -0.000111954991    12.000000000000
         N            2.415203830470    -1.183110884193     0.020371845009    14.003074004430
         N            2.418178630470     1.180077915807    -0.022655954991    14.003074004430
         H           -0.023027269530    -2.216414884193     0.036540945009     1.007825032230
         H           -2.512672169530    -2.193530384193     0.037991645009     1.007825032230
         H           -3.783041369530     0.001745915807     0.002025045009     1.007825032230
         H           -2.511416669530     2.197182715807    -0.036562354991     1.007825032230
         H           -0.021899769530     2.215784315807    -0.038670754991     1.007825032230
         H            3.466631130470    -1.194750084193     0.020412945009     1.007825032230
         H            1.921323930470    -2.108112684193     0.036950045009     1.007825032230
         H            3.469638030470     1.189085915807    -0.014638254991     1.007825032230
         H            1.926670130470     2.106467415807    -0.033062054991     1.007825032230

  Running in c1 symmetry.

  Rotational constants: A =      0.11701  B =      0.03808  C =      0.02873 [cm^-1]
  Rotational constants: A =   3507.80518  B =   1141.73235  C =    861.37091 [MHz]
  Nuclear repulsion =  406.104550041727293

  Charge       = 1
  Multiplicity = 1
  Electrons    = 64
  Nalpha       = 32
  Nbeta        = 32

  ==> Algorithm <==

  SCF Algorithm Type is DF.
  DIIS enabled.
  MOM disabled.
  Fractional occupation disabled.
  Guess Type is SAD.
  Energy threshold   = 1.00e-08
  Density threshold  = 1.00e-08
  Integral threshold = 0.00e+00

  ==> Primary Basis <==

  Basis Set: STO-3G
    Blend: STO-3G
    Number of shells: 36
    Number of basis function: 54
    Number of Cartesian functions: 54
    Spherical Harmonics?: true
    Max angular momentum: 1

  ==> DFT Potential <==

   => Composite Functional: BLYP <= 

    BLYP GGA Exchange-Correlation Functional

    P.J. Stephens et. al., J. Phys. Chem., 98, 11623-11627, 1994
    B. Miehlich et. al., Chem. Phys. Lett., 157(3), 200-206 1989


    Deriv               =              1
    GGA                 =           TRUE
    Meta                =          FALSE

    Exchange Hybrid     =          FALSE
    MP2 Hybrid          =          FALSE

   => Exchange Functionals <=

    1.0000     XC_GGA_X_B88

   => Correlation Functionals <=

    1.0000     XC_GGA_C_LYP

   => Molecular Quadrature <=

    Radial Scheme          =       TREUTLER
    Pruning Scheme         =           FLAT
    Nuclear Scheme         =       TREUTLER

    BS radius alpha        =              1
    Pruning alpha          =              1
    Radial Points          =             75
    Spherical Points       =            302
    Total Points           =         394939
    Total Blocks           =           2983
    Max Points             =            256
    Max Functions          =             51

   => Loading Basis Set <=

    Name: (STO-3G AUX)
    Role: JKFIT
    Keyword: DF_BASIS_SCF
    atoms 1-7   entry C          line   203 file /home/aaojha/anaconda3/envs/torsiondrive/share/psi4/basis/def2-svp-jkfit.gbs 
    atoms 8-9   entry N          line   263 file /home/aaojha/anaconda3/envs/torsiondrive/share/psi4/basis/def2-svp-jkfit.gbs 
    atoms 10-18 entry H          line    23 file /home/aaojha/anaconda3/envs/torsiondrive/share/psi4/basis/def2-svp-jkfit.gbs 

  ==> Pre-Iterations <==

   -------------------------------------------------------
    Irrep   Nso     Nmo     Nalpha   Nbeta   Ndocc  Nsocc
   -------------------------------------------------------
     A         54      54       0       0       0       0
   -------------------------------------------------------
    Total      54      54      32      32      32       0
   -------------------------------------------------------

  ==> Integral Setup <==

  DFHelper Memory: AOs need 0.024 GiB; user supplied 34.426 GiB. Using in-core AOs.

  ==> MemDFJK: Density-Fitted J/K Matrices <==

    J tasked:                   Yes
    K tasked:                    No
    wK tasked:                   No
    OpenMP threads:               1
    Memory [MiB]:             35252
    Algorithm:                 Core
    Schwarz Cutoff:           1E-12
    Mask sparsity (%):       1.9890
    Fitting Condition:        1E-10

   => Auxiliary Basis Set <=

  Basis Set: (STO-3G AUX)
    Blend: DEF2-SVP-JKFIT
    Number of shells: 279
    Number of basis function: 841
    Number of Cartesian functions: 989
    Spherical Harmonics?: true
    Max angular momentum: 4

  Cached 100.0% of DFT collocation blocks in 0.498 [GiB].

  Minimum eigenvalue in the overlap matrix is 1.8839580828E-01.
  Using Symmetric Orthogonalization.

  SCF Guess: Superposition of Atomic Densities via on-the-fly atomic UHF.

  ==> Iterations <==

                           Total Energy        Delta E     RMS |[F,P]|

   @DF-RKS iter SAD:  -373.14478608180912   -3.73145e+02   0.00000e+00 
   @DF-RKS iter   1:  -376.48647914282947   -3.34169e+00   5.06912e-03 DIIS
   @DF-RKS iter   2:  -376.34489525040726    1.41584e-01   9.85695e-03 DIIS
   @DF-RKS iter   3:  -376.53441490334455   -1.89520e-01   1.74363e-03 DIIS
   @DF-RKS iter   4:  -376.53978018046030   -5.36528e-03   6.84232e-04 DIIS
   @DF-RKS iter   5:  -376.54080811423773   -1.02793e-03   1.55260e-04 DIIS
   @DF-RKS iter   6:  -376.54085560546855   -4.74912e-05   4.32886e-05 DIIS
   @DF-RKS iter   7:  -376.54085903752457   -3.43206e-06   1.07023e-05 DIIS
   @DF-RKS iter   8:  -376.54085927793915   -2.40415e-07   3.27264e-06 DIIS
   @DF-RKS iter   9:  -376.54085929891335   -2.09742e-08   8.41275e-07 DIIS
   @DF-RKS iter  10:  -376.54085929969426   -7.80915e-10   6.18966e-07 DIIS
   @DF-RKS iter  11:  -376.54085930051531   -8.21046e-10   5.22443e-08 DIIS
   @DF-RKS iter  12:  -376.54085930051690   -1.59162e-12   4.44748e-08 DIIS
   @DF-RKS iter  13:  -376.54085930052111   -4.20641e-12   7.69139e-09 DIIS
  Energy and wave function converged.


  ==> Post-Iterations <==

    Orbital Energies [Eh]
    ---------------------

    Doubly Occupied:                                                      

       1A    -14.119555     2A    -14.119473     3A    -10.092138  
       4A     -9.956735     5A     -9.930336     6A     -9.930262  
       7A     -9.917607     8A     -9.914252     9A     -9.914068  
      10A     -1.040918    11A     -0.960574    12A     -0.883052  
      13A     -0.806719    14A     -0.784276    15A     -0.738966  
      16A     -0.678511    17A     -0.669097    18A     -0.636950  
      19A     -0.631545    20A     -0.592749    21A     -0.571257  
      22A     -0.540566    23A     -0.502943    24A     -0.500062  
      25A     -0.489245    26A     -0.486017    27A     -0.421228  
      28A     -0.417896    29A     -0.413416    30A     -0.360246  
      31A     -0.326295    32A     -0.321376  

    Virtual:                                                              

      33A     -0.190377    34A     -0.107796    35A     -0.085400  
      36A      0.005820    37A      0.033348    38A      0.037824  
      39A      0.062030    40A      0.096607    41A      0.124105  
      42A      0.152591    43A      0.183080    44A      0.191967  
      45A      0.219446    46A      0.228158    47A      0.261049  
      48A      0.273698    49A      0.346298    50A      0.351655  
      51A      0.363750    52A      0.370514    53A      0.490463  
      54A      0.532082  

    Final Occupation by Irrep:
              A 
    DOCC [    32 ]

  @DF-RKS Final Energy:  -376.54085930052111

   => Energetics <=

    Nuclear Repulsion Energy =            406.1045500417272933
    One-Electron Energy =               -1302.9486249586768736
    Two-Electron Energy =                 574.5944853237923553
    DFT Exchange-Correlation Energy =     -54.2912697073638810
    Empirical Dispersion Energy =           0.0000000000000000
    VV10 Nonlocal Energy =                  0.0000000000000000
    Total Energy =                       -376.5408593005211060

Computation Completed


Properties will be evaluated at   0.000000,   0.000000,   0.000000 [a0]

Properties computed using the SCF density matrix

  Nuclear Dipole Moment: [e a0]
     X:     1.7973      Y:    -0.0024      Z:     0.0103

  Electronic Dipole Moment: [e a0]
     X:     0.6568      Y:     0.0013      Z:    -0.0013

  Dipole Moment: [e a0]
     X:     2.4542      Y:    -0.0010      Z:     0.0090     Total:     2.4542

  Dipole Moment: [D]
     X:     6.2378      Y:    -0.0026      Z:     0.0229     Total:     6.2379


*** tstop() called on aaojha at Fri May 14 09:19:03 2021
Module time:
	user time   =       7.35 seconds =       0.12 minutes
	system time =       0.16 seconds =       0.00 minutes
	total time  =          8 seconds =       0.13 minutes
Total time:
	user time   =       7.35 seconds =       0.12 minutes
	system time =       0.16 seconds =       0.00 minutes
	total time  =          8 seconds =       0.13 minutes

*** tstart() called on aaojha
*** at Fri May 14 09:19:03 2021


         ------------------------------------------------------------
                                   SCF GRAD                          
                          Rob Parrish, Justin Turney,                
                       Andy Simmonett, and Alex Sokolov              
         ------------------------------------------------------------

  ==> Geometry <==

    Molecular point group: c1
    Full point group: C1

    Geometry (in Angstrom), charge = 1, multiplicity = 1:

       Center              X                  Y                   Z               Mass       
    ------------   -----------------  -----------------  -----------------  -----------------
         C            0.186883930470    -0.000127784193    -0.000360454991    12.000000000000
         C           -0.544681169530    -1.240135884193     0.020884345009    12.000000000000
         C           -1.961351969530    -1.233268984193     0.021606245009    12.000000000000
         C           -2.674346569530     0.001583915807     0.001225945009    12.000000000000
         C           -1.961156669530     1.236289315807    -0.020367354991    12.000000000000
         C           -0.544523269530     1.240057215807    -0.021134154991    12.000000000000
         C            1.696714230470    -0.000645084193    -0.000111954991    12.000000000000
         N            2.415203830470    -1.183110884193     0.020371845009    14.003074004430
         N            2.418178630470     1.180077915807    -0.022655954991    14.003074004430
         H           -0.023027269530    -2.216414884193     0.036540945009     1.007825032230
         H           -2.512672169530    -2.193530384193     0.037991645009     1.007825032230
         H           -3.783041369530     0.001745915807     0.002025045009     1.007825032230
         H           -2.511416669530     2.197182715807    -0.036562354991     1.007825032230
         H           -0.021899769530     2.215784315807    -0.038670754991     1.007825032230
         H            3.466631130470    -1.194750084193     0.020412945009     1.007825032230
         H            1.921323930470    -2.108112684193     0.036950045009     1.007825032230
         H            3.469638030470     1.189085915807    -0.014638254991     1.007825032230
         H            1.926670130470     2.106467415807    -0.033062054991     1.007825032230

  Nuclear repulsion =  406.104550041727293

  ==> Basis Set <==

  Basis Set: STO-3G
    Blend: STO-3G
    Number of shells: 36
    Number of basis function: 54
    Number of Cartesian functions: 54
    Spherical Harmonics?: true
    Max angular momentum: 1

  ==> DFJKGrad: Density-Fitted SCF Gradients <==

    Gradient:                    1
    J tasked:                  Yes
    K tasked:                   No
    wK tasked:                  No
    OpenMP threads:              1
    Integrals threads:           1
    Memory [MiB]:            35762
    Schwarz Cutoff:          0E+00
    Fitting Condition:       1E-10

   => Auxiliary Basis Set <=

  Basis Set: (STO-3G AUX)
    Blend: DEF2-SVP-JKFIT
    Number of shells: 279
    Number of basis function: 841
    Number of Cartesian functions: 989
    Spherical Harmonics?: true
    Max angular momentum: 4

  ==> DFT Potential <==

   => Composite Functional: BLYP <= 

    BLYP GGA Exchange-Correlation Functional

    P.J. Stephens et. al., J. Phys. Chem., 98, 11623-11627, 1994
    B. Miehlich et. al., Chem. Phys. Lett., 157(3), 200-206 1989


    Deriv               =              1
    GGA                 =           TRUE
    Meta                =          FALSE

    Exchange Hybrid     =          FALSE
    MP2 Hybrid          =          FALSE

   => Exchange Functionals <=

    1.0000     XC_GGA_X_B88

   => Correlation Functionals <=

    1.0000     XC_GGA_C_LYP

   => Molecular Quadrature <=

    Radial Scheme          =       TREUTLER
    Pruning Scheme         =           FLAT
    Nuclear Scheme         =       TREUTLER

    BS radius alpha        =              1
    Pruning alpha          =              1
    Radial Points          =             75
    Spherical Points       =            302
    Total Points           =         394939
    Total Blocks           =           2983
    Max Points             =            256
    Max Functions          =             51


  -Total Gradient:
     Atom            X                  Y                   Z
    ------   -----------------  -----------------  -----------------
       1        0.000267395215    -0.000074458009    -0.000023662844
       2        0.000020007518    -0.000040711123     0.000017932698
       3        0.000077784524     0.000244102997     0.000001303840
       4       -0.000085069421    -0.000046618420     0.000000735448
       5       -0.000081030808     0.000242343142    -0.000010286976
       6       -0.000308311461    -0.000439995735     0.000040660711
       7        0.000638344852     0.000028571423     0.000101051355
       8       -0.000296732657    -0.000335303077    -0.000043344727
       9       -0.000110360084     0.000359214147    -0.000174144172
      10        0.000027533284     0.000029883707    -0.000020149249
      11       -0.000000738872     0.000021088871    -0.000003821935
      12       -0.000009696169     0.000033404897     0.000004724180
      13       -0.000046663311    -0.000001636021     0.000000261048
      14       -0.000082044725    -0.000022259003    -0.000026606101
      15       -0.000059348511     0.000210962680     0.000000279072
      16        0.000020478380     0.000003783312     0.000013181231
      17       -0.000028861009    -0.000211890097     0.000086126412
      18        0.000041750504     0.000000441850     0.000035663746


*** tstop() called on aaojha at Fri May 14 09:19:05 2021
Module time:
	user time   =       2.10 seconds =       0.04 minutes
	system time =       0.01 seconds =       0.00 minutes
	total time  =          2 seconds =       0.03 minutes
Total time:
	user time   =       9.45 seconds =       0.16 minutes
	system time =       0.17 seconds =       0.00 minutes
	total time  =         10 seconds =       0.17 minutes

    Psi4 stopped on: Friday, 14 May 2021 09:19AM
    Psi4 wall time for execution: 0:00:09.66

*** Psi4 exiting successfully. Buy a developer a beer!
