18   
Iteration 0 Energy -376.54113745
C        0.1623409000   -0.0133830000    0.0279401000
C       -0.5542714000   -1.2138039000   -0.2970900000
C       -1.9723737000   -1.1954083000   -0.3131991000
C       -2.6756411000    0.0065600000   -0.0055404000
C       -1.9624911000    1.2013366000    0.3085886000
C       -0.5443441000    1.2034912000    0.3112945000
C        1.6719676000   -0.0136182000   -0.0040696000
N        2.3849297000   -1.0526576000    0.5611273000
N        2.3544483000    1.0571305000   -0.5468025000
H       -0.0069352000   -2.1400676000   -0.5599471000
H       -2.5306669000   -2.1159183000   -0.5728684000
H       -3.7840177000    0.0134474000   -0.0144025000
H       -2.5137069000    2.1308044000    0.5509887000
H        0.0099280000    2.1259652000    0.5725762000
H        3.4352331000   -1.1162355000    0.5167156000
H        1.8683409000   -1.8283475000    1.0475379000
H        3.4052882000    1.1255522000   -0.5398271000
H        1.8185486000    1.8123378000   -1.0444050000
18   
Iteration 1 Energy -376.54025670
C        0.1661941063   -0.0228200701    0.0382532326
C       -0.5573642010   -1.2082441551   -0.3248077396
C       -1.9755412830   -1.1867283974   -0.3419865065
C       -2.6784886338    0.0071181738   -0.0040869021
C       -1.9588615140    1.1903495836    0.3375185624
C       -0.5406206849    1.1890717105    0.3416766273
C        1.6752041261   -0.0197085569   -0.0167391521
N        2.3851039976   -1.0272411438    0.6063726672
N        2.3532267985    1.0363203416   -0.5943286885
H       -0.0132006945   -2.1281347656   -0.6149422511
H       -2.5348490351   -2.0988576641   -0.6276937484
H       -3.7868709423    0.0176220100   -0.0137056840
H       -2.5066970928    2.1165000262    0.5993850681
H        0.0146956363    2.1055787951    0.6210376947
H        3.4354637492   -1.0925290207    0.5688609656
H        1.8666958508   -1.7781771440    1.1283816889
H        3.4034499559    1.1134888867   -0.5876546578
H        1.8134723977    1.7715878394   -1.1168549376
18   
Iteration 2 Energy -376.53968089
C        0.1587665161   -0.0299019104    0.0473771458
C       -0.5584180338   -1.2091173865   -0.3463968281
C       -1.9762846583   -1.1793232576   -0.3683884627
C       -2.6710371297    0.0129639340   -0.0088672861
C       -1.9556293252    1.1905314111    0.3599955821
C       -0.5376006312    1.1833612901    0.3683941090
C        1.6688546995   -0.0275323173   -0.0101587610
N        2.3951556322   -1.0037159708    0.6431683680
N        2.3360448666    1.0125316094   -0.6262059015
H       -0.0131752471   -2.1244901131   -0.6490375768
H       -2.5399461225   -2.0821350179   -0.6744243445
H       -3.7791926568    0.0272045802   -0.0232981831
H       -2.5030890826    2.1127799174    0.6362230855
H        0.0234376712    2.0911657635    0.6645266259
H        3.4458790716   -1.0666009818    0.6015104441
H        1.8843890292   -1.7466106937    1.1842757780
H        3.3860557835    1.0962548644   -0.6275967551
H        1.7880642813    1.7249990108   -1.1718707340
18   
Iteration 3 Energy -376.53869448
C        0.1606021041   -0.0374249651    0.0595094065
C       -0.5645773702   -1.1962911759   -0.3753299821
C       -1.9829627872   -1.1630085227   -0.4040423712
C       -2.6807533910    0.0169847152   -0.0134393049
C       -1.9552194266    1.1760596270    0.3914019966
C       -0.5365751823    1.1673766771    0.4059229622
C        1.6731573195   -0.0342833064   -0.0051632471
N        2.4084121703   -0.9681641516    0.6973023040
N        2.3309277015    0.9776939461   -0.6745166392
H       -0.0211785703   -2.1057120474   -0.6982878070
H       -2.5456152222   -2.0555221262   -0.7405160499
H       -3.7887703791    0.0365956091   -0.0326867811
H       -2.4990723514    2.0932729666    0.6903089530
H        0.0255305487    2.0662949024    0.7259837154
H        3.4594663471   -1.0262649454    0.6477960317
H        1.9049311962   -1.6953846305    1.2666033085
H        3.3807454646    1.0669912858   -0.6877870082
H        1.7746310236    1.6586647316   -1.2517637906
18   
Iteration 4 Energy -376.53875146
C        0.1600686982   -0.0328431102    0.0531978417
C       -0.5586050431   -1.1946906431   -0.3822734987
C       -1.9772677063   -1.1637284136   -0.4091546660
C       -2.6744716322    0.0145102118   -0.0119914154
C       -1.9566665279    1.1756447151    0.4005129755
C       -0.5378920732    1.1671594365    0.4123615465
C        1.6745751988   -0.0250535221   -0.0045546954
N        2.3941896100   -0.9618050622    0.7092953849
N        2.3367750585    0.9756623258   -0.6869376759
H       -0.0121695186   -2.1026660222   -0.7039718570
H       -2.5392874647   -2.0558941952   -0.7476898270
H       -3.7824607820    0.0306270629   -0.0298898623
H       -2.5031455243    2.0892171740    0.7059575053
H        0.0243234541    2.0642816266    0.7369681907
H        3.4447815551   -1.0315039785    0.6628656930
H        1.8796270285   -1.6870035958    1.2716460524
H        3.3869898778    1.0614303499   -0.7047432793
H        1.7816635228    1.6532292778   -1.2694891761
18   
Iteration 5 Energy -376.53877171
C        0.1589394504   -0.0302179799    0.0464405610
C       -0.5584088101   -1.1927267502   -0.3879058456
C       -1.9772183596   -1.1622418923   -0.4122546257
C       -2.6758471515    0.0138339065   -0.0113840254
C       -1.9562844893    1.1729227245    0.4035629017
C       -0.5373672320    1.1676438811    0.4143516909
C        1.6750301113   -0.0241815322   -0.0033424059
N        2.3958856795   -0.9555754401    0.7155007425
N        2.3369695166    0.9710436406   -0.6927315950
H       -0.0122590454   -2.1003851558   -0.7108139033
H       -2.5387145932   -2.0544935527   -0.7513690370
H       -3.7838824616    0.0293454417   -0.0272014902
H       -2.5028973186    2.0848091559    0.7135999555
H        0.0244354058    2.0644410861    0.7405904396
H        3.4462650077   -1.0333560859    0.6740790577
H        1.8773294882   -1.6790797121    1.2762821946
H        3.3873360278    1.0551834937   -0.7124520588
H        1.7810370810    1.6499830478   -1.2728876898
18   
Iteration 6 Energy -376.53877489
C        0.1591879749   -0.0306682924    0.0433813433
C       -0.5604334495   -1.1922857962   -0.3890408205
C       -1.9792805438   -1.1625534015   -0.4122737153
C       -2.6760953252    0.0143111402   -0.0106094164
C       -1.9574849740    1.1742250581    0.4032799064
C       -0.5385136714    1.1661261333    0.4121235989
C        1.6755672522   -0.0265725342   -0.0034141665
N        2.3983868827   -0.9547919535    0.7172081969
N        2.3376214495    0.9684546260   -0.6922184591
H       -0.0155032760   -2.0999544285   -0.7138878568
H       -2.5413312980   -2.0548224276   -0.7505019292
H       -3.7841127466    0.0298588081   -0.0253480728
H       -2.5033486212    2.0863762013    0.7139707275
H        0.0235287292    2.0632990869    0.7367525522
H        3.4490848772   -1.0254229990    0.6707946676
H        1.8842929264   -1.6809133660    1.2787721484
H        3.3879276573    1.0535675142   -0.7086608092
H        1.7819085071    1.6504379150   -1.2689756926
18   
Iteration 7 Energy -376.53877879
C        0.1592432498   -0.0302597754    0.0428373541
C       -0.5591740362   -1.1930247134   -0.3888412217
C       -1.9779964026   -1.1628363313   -0.4109354921
C       -2.6759806019    0.0133701040   -0.0094541313
C       -1.9562139263    1.1731710982    0.4026917761
C       -0.5372606502    1.1674294825    0.4112009035
C        1.6750677264   -0.0258937830   -0.0053659975
N        2.3949951587   -0.9555448453    0.7165191602
N        2.3385001522    0.9695073092   -0.6926780803
H       -0.0140395507   -2.1002992489   -0.7146370722
H       -2.5398728276   -2.0554746970   -0.7483897790
H       -3.7840407954    0.0285816032   -0.0233673564
H       -2.5022510731    2.0852486707    0.7131868843
H        0.0244612884    2.0652521812    0.7347578318
H        3.4456769745   -1.0266260942    0.6713834081
H        1.8793423594   -1.6818209572    1.2764767406
H        3.3886532291    1.0567825780   -0.7062958963
H        1.7832970847    1.6527576981   -1.2684114501
18   
Iteration 8 Energy -376.53877991
C        0.1600435059   -0.0297026870    0.0427911350
C       -0.5587772164   -1.1924017452   -0.3885295210
C       -1.9776666762   -1.1634588450   -0.4104732963
C       -2.6756631130    0.0126606582   -0.0087075924
C       -1.9565437225    1.1730394469    0.4030307675
C       -0.5375634747    1.1674137649    0.4108447355
C        1.6757731880   -0.0245208927   -0.0063941380
N        2.3945281157   -0.9550983789    0.7157826916
N        2.3396509573    0.9704645819   -0.6942087054
H       -0.0132719365   -2.0993282179   -0.7146099628
H       -2.5392312916   -2.0564017584   -0.7476742123
H       -3.7837283682    0.0274234072   -0.0222205376
H       -2.5027941379    2.0850003696    0.7135376957
H        0.0238181487    2.0655431180    0.7340819055
H        3.4450221188   -1.0312078174    0.6749019184
H        1.8754933564   -1.6807543275    1.2733576281
H        3.3897080822    1.0592413449   -0.7059070455
H        1.7845810050    1.6541788160   -1.2695100297
18   
Iteration 9 Energy -376.53878133
C        0.1596825811   -0.0298229623    0.0425237749
C       -0.5589326934   -1.1926092514   -0.3888298933
C       -1.9778062517   -1.1630789981   -0.4106747338
C       -2.6759063007    0.0130076350   -0.0089391417
C       -1.9566855352    1.1732450936    0.4030066689
C       -0.5377048695    1.1673096314    0.4108814422
C        1.6755659653   -0.0248476942   -0.0057105990
N        2.3954465137   -0.9544207409    0.7165531597
N        2.3390606615    0.9695061463   -0.6945735996
H       -0.0135613921   -2.0996599375   -0.7147815775
H       -2.5395103580   -2.0559251606   -0.7478878766
H       -3.7839714067    0.0278296481   -0.0225487086
H       -2.5027985436    2.0852546308    0.7136106410
H        0.0238294732    2.0652889996    0.7342637940
H        3.4459909130   -1.0285854917    0.6729478124
H        1.8781493174   -1.6812892875    1.2742014897
H        3.3891295360    1.0582484466   -0.7051770189
H        1.7840391310    1.6538864814   -1.2691331922
18   
Iteration 10 Energy -376.53878148
C        0.1595911880   -0.0295967022    0.0425099813
C       -0.5591471117   -1.1924312457   -0.3885926317
C       -1.9780024689   -1.1635172330   -0.4106325177
C       -2.6756301408    0.0128805517   -0.0090315991
C       -1.9563798854    1.1731863249    0.4027063335
C       -0.5374060917    1.1677901193    0.4107462708
C        1.6754763281   -0.0248721624   -0.0056279203
N        2.3957716115   -0.9540699645    0.7166831341
N        2.3389766153    0.9690247529   -0.6950347464
H       -0.0136367675   -2.0994624779   -0.7143516180
H       -2.5396832810   -2.0564515718   -0.7476763220
H       -3.7836906672    0.0278623327   -0.0225734090
H       -2.5026472107    2.0851639700    0.7131172846
H        0.0240748194    2.0658458912    0.7340340000
H        3.4462815977   -1.0277937503    0.6713000898
H        1.8791891604   -1.6817118379    1.2740061578
H        3.3888959324    1.0595600954   -0.7048497125
H        1.7833995793    1.6544749564   -1.2677534393
