18   
Iteration 0 Energy -376.54115441
C        0.1520754000    0.0354375000    0.0309364000
C       -0.5660611000   -0.7548244000    0.9902676000
C       -1.9838780000   -0.7720419000    0.9546413000
C       -2.6876167000   -0.0062556000   -0.0212417000
C       -1.9727072000    0.7739697000   -0.9776530000
C       -0.5547086000    0.7878145000   -0.9665047000
C        1.6618212000    0.0117849000    0.0244678000
N        2.3525513000   -0.1036823000   -1.1659371000
N        2.3637427000    0.0420216000    1.2134673000
H       -0.0202987000   -1.3693402000    1.7325455000
H       -2.5426820000   -1.3893333000    1.6848073000
H       -3.7958442000   -0.0202479000   -0.0388757000
H       -2.5224314000    1.3710029000   -1.7311980000
H       -0.0002749000    1.4084559000   -1.6972718000
H        3.4034572000   -0.0628351000   -1.2216703000
H        1.8175285000   -0.1889650000   -2.0668359000
H        3.4119626000   -0.0466159000    1.2606778000
H        1.8448883000    0.1891234000    2.1157564000
18   
Iteration 1 Energy -376.54167707
C        0.1517722148    0.0106241532    0.0174503574
C       -0.5709729120   -0.7411927099    1.0040656950
C       -1.9890614573   -0.7493017973    0.9791716103
C       -2.6859732325   -0.0013873704   -0.0151499247
C       -1.9679393566    0.7498984266   -0.9923959371
C       -0.5498377251    0.7531485767   -0.9907408705
C        1.6615832122   -0.0090151700    0.0215283231
N        2.3582612128   -0.0488305735   -1.1703592279
N        2.3566538091   -0.0065098332    1.2151353079
H       -0.0266682958   -1.3374301744    1.7620497595
H       -2.5501747420   -1.3408832690    1.7286938751
H       -3.7943146213   -0.0042710722   -0.0287740810
H       -2.5166089567    1.3353947881   -1.7556737031
H        0.0068859105    1.3548865413   -1.7354818557
H        3.4083509832    0.0126299159   -1.2217443271
H        1.8269727043   -0.0971997804   -2.0761740870
H        3.4062101824   -0.0763696306    1.2641224272
H        1.8312503913    0.1020412333    2.1190929283
18   
Iteration 2 Energy -376.54188375
C        0.1539598352   -0.0012457935    0.0136094206
C       -0.5700001109   -0.7287806990    1.0176249674
C       -1.9879399097   -0.7236836024    0.9892712700
C       -2.6949212736    0.0042693802   -0.0132172762
C       -1.9764880473    0.7330083004   -1.0065958685
C       -0.5584838617    0.7244633543   -1.0005078816
C        1.6633709841   -0.0119253017    0.0174547866
N        2.3695449800   -0.0045660939   -1.1696737179
N        2.3564683291   -0.0437630392    1.2119447299
H       -0.0307868178   -1.3170705062    1.7854902578
H       -2.5491862130   -1.2972320371    1.7523870488
H       -3.8034509233    0.0041209396   -0.0204785969
H       -2.5219382275    1.3083475149   -1.7799313037
H       -0.0038235531    1.3125732124   -1.7572955312
H        3.4194726529    0.0647900798   -1.2064568447
H        1.8488720565   -0.0387396307   -2.0818939088
H        3.4063516561   -0.1063982889    1.2585610982
H        1.8300377077    0.0281781443    2.1185816767
18   
Iteration 3 Energy -376.54210523
C        0.1514954373   -0.0146390951    0.0012740585
C       -0.5731488927   -0.7068657792    1.0309393779
C       -1.9906448196   -0.6980613493    1.0179500928
C       -2.6900607157    0.0078727137   -0.0056148062
C       -1.9723452437    0.7043293476   -1.0230773533
C       -0.5548554628    0.6932124513   -1.0303256302
C        1.6593083564   -0.0176989496    0.0128010404
N        2.3737367375    0.0601579197   -1.1672559497
N        2.3477120919   -0.0987607546    1.2082499825
H       -0.0335378373   -1.2797574628    1.8100089113
H       -2.5516741661   -1.2450106129    1.8006525379
H       -3.7985823514    0.0165434706   -0.0096054715
H       -2.5206682247    1.2618861850   -1.8072684278
H       -0.0029727804    1.2617202021   -1.8040782382
H        3.4231688452    0.1375347555   -1.1885305101
H        1.8640278166    0.0531728554   -2.0858291744
H        3.3976991068   -0.1532926426    1.2558111856
H        1.8181002586   -0.0765311229    2.1151625613
18   
Iteration 4 Energy -376.54212946
C        0.1543344459   -0.0076537038    0.0077429414
C       -0.5771730927   -0.7005893345    1.0327506807
C       -1.9945774363   -0.6951724283    1.0168129555
C       -2.6945739174    0.0064708453   -0.0091373719
C       -1.9738724541    0.6998843590   -1.0263028891
C       -0.5563044628    0.6919350338   -1.0271559406
C        1.6619563555   -0.0112149488    0.0190349138
N        2.3714006560    0.0699204241   -1.1642980446
N        2.3579184756   -0.1044103926    1.2098646838
H       -0.0420281255   -1.2759037251    1.8130209122
H       -2.5556998616   -1.2424712012    1.7992101970
H       -3.8031236138    0.0124274720   -0.0162325667
H       -2.5200312541    1.2525425875   -1.8154511047
H       -0.0060828516    1.2593779771   -1.8027498263
H        3.4211752595    0.1368452091   -1.1953776706
H        1.8570225342    0.0608809400   -2.0800261233
H        3.4079172756   -0.1635029765    1.2491514906
H        1.8360148101   -0.0835293739    2.1210834242
18   
Iteration 5 Energy -376.54214185
C        0.1513731804   -0.0014819889    0.0125242495
C       -0.5750001114   -0.6982000085    1.0388811479
C       -1.9921121712   -0.6931450392    1.0158564819
C       -2.6936475109    0.0053281927   -0.0113089240
C       -1.9748602403    0.6988620168   -1.0295791622
C       -0.5574669901    0.6944752649   -1.0267109973
C        1.6581670659   -0.0073226645    0.0202782644
N        2.3682577002    0.0766805946   -1.1629107858
N        2.3580086227   -0.1101683256    1.2082027205
H       -0.0406060048   -1.2736659246    1.8197559511
H       -2.5541103418   -1.2408516569    1.7972506203
H       -3.8022168701    0.0078256109   -0.0191278763
H       -2.5212263594    1.2475324217   -1.8213513514
H       -0.0073641514    1.2619768112   -1.8024043583
H        3.4187797186    0.1315512961   -1.1914897451
H        1.8564085535    0.0662277514   -2.0799822910
H        3.4079644614   -0.1724797924    1.2423012908
H        1.8410419484   -0.0874151098    2.1222261396
18   
Iteration 6 Energy -376.54214957
C        0.1514544663   -0.0003329229    0.0102387525
C       -0.5754081841   -0.6969608085    1.0359233459
C       -1.9927875817   -0.6947958943    1.0168908129
C       -2.6945957044    0.0043307232   -0.0096278421
C       -1.9764471033    0.6997947751   -1.0272491144
C       -0.5589309141    0.6966796632   -1.0267965941
C        1.6582608164   -0.0086991727    0.0169802032
N        2.3722812670    0.0753997377   -1.1638596601
N        2.3552487256   -0.1110947504    1.2063963083
H       -0.0388094791   -1.2704026710    1.8166838416
H       -2.5531177436   -1.2435023844    1.7988254795
H       -3.8031618453    0.0065519716   -0.0169449051
H       -2.5240366204    1.2493324108   -1.8175798893
H       -0.0099080955    1.2663023146   -1.8016738116
H        3.4232448097    0.1259563198   -1.1852486226
H        1.8651161326    0.0633428360   -2.0835978917
H        3.4051506848   -0.1726236901    1.2438467246
H        1.8360502772   -0.0838350297    2.1191297488
18   
Iteration 7 Energy -376.54215372
C        0.1521404174   -0.0007667751    0.0108830615
C       -0.5756225723   -0.6982471184    1.0351220564
C       -1.9931137179   -0.6968478728    1.0155695589
C       -2.6934744906    0.0033402175   -0.0112311691
C       -1.9743556890    0.7008518598   -1.0269234423
C       -0.5568005578    0.6976639920   -1.0258110307
C        1.6588680067   -0.0100404677    0.0192093562
N        2.3676758348    0.0753311424   -1.1645919128
N        2.3562854696   -0.1105483388    1.2086294361
H       -0.0387010275   -1.2704055614    1.8165304820
H       -2.5540062075   -1.2464166433    1.7965111608
H       -3.8020290438    0.0054116335   -0.0199017663
H       -2.5214361346    1.2517975643   -1.8166326548
H       -0.0062964536    1.2684349400   -1.7988019208
H        3.4185935237    0.1236670487   -1.1928208975
H        1.8555348593    0.0598263912   -2.0815996171
H        3.4063637829   -0.1691275247    1.2465727293
H        1.8372866869   -0.0788245635    2.1213542225
18   
Iteration 8 Energy -376.54215670
C        0.1515344165    0.0000507561    0.0112515413
C       -0.5758531393   -0.6985442442    1.0352659626
C       -1.9932510954   -0.6969926627    1.0151833830
C       -2.6939664419    0.0032630159   -0.0112498602
C       -1.9750596818    0.7012625517   -1.0266902905
C       -0.5575852682    0.6984266640   -1.0255680304
C        1.6584032137   -0.0091067257    0.0190911065
N        2.3687339129    0.0773009552   -1.1636929361
N        2.3557683225   -0.1117556023    1.2083211726
H       -0.0391238294   -1.2712966955    1.8163813240
H       -2.5541498470   -1.2470461236    1.7957685032
H       -3.8025235019    0.0049125017   -0.0199489256
H       -2.5222848777    1.2523249525   -1.8162115448
H       -0.0072932768    1.2696690323   -1.7983683650
H        3.4198036618    0.1214686599   -1.1930543972
H        1.8569205955    0.0577794190   -2.0807548336
H        3.4059794760   -0.1688667925    1.2451593551
H        1.8374959150   -0.0781364130    2.1213616010
18   
Iteration 9 Energy -376.54215808
C        0.1508019248    0.0008380147    0.0117875089
C       -0.5762207677   -0.6994204721    1.0351357228
C       -1.9935161116   -0.6975430082    1.0143510402
C       -2.6945768095    0.0033936654   -0.0113394100
C       -1.9761774769    0.7022573001   -1.0264570132
C       -0.5587700704    0.6994906268   -1.0247659895
C        1.6577728924   -0.0078996443    0.0190625029
N        2.3680685578    0.0803354245   -1.1635721929
N        2.3559645307   -0.1133071979    1.2076288725
H       -0.0398098380   -1.2735310995    1.8154919452
H       -2.5545042795   -1.2485077699    1.7942203119
H       -3.8031312060    0.0046220318   -0.0199605845
H       -2.5234739537    1.2536906840   -1.8156722112
H       -0.0086007613    1.2712983246   -1.7972317372
H        3.4194870783    0.1177871753   -1.1892826047
H        1.8583571353    0.0541619938   -2.0816535142
H        3.4063692101   -0.1673900767    1.2437224747
H        1.8387509600   -0.0763030015    2.1211256682
18   
Iteration 10 Energy -376.54215891
C        0.1507853296    0.0000382289    0.0112427487
C       -0.5762909280   -0.7003065161    1.0342755428
C       -1.9936587196   -0.6983541455    1.0139738196
C       -2.6948238309    0.0035499105   -0.0110378570
C       -1.9759162599    0.7028697404   -1.0255401604
C       -0.5584431666    0.6999386962   -1.0245083627
C        1.6576763003   -0.0086299529    0.0188126530
N        2.3681167909    0.0797833076   -1.1638086801
N        2.3550761903   -0.1128689305    1.2079380290
H       -0.0395335767   -1.2746572527    1.8142167145
H       -2.5545361771   -1.2497352817    1.7936294051
H       -3.8033816571    0.0052500598   -0.0195291446
H       -2.5231854872    1.2551164999   -1.8141990494
H       -0.0080545936    1.2719896321   -1.7966370082
H        3.4195272180    0.1171174391   -1.1910574522
H        1.8578175552    0.0520614586   -2.0815550932
H        3.4055255181   -0.1652816821    1.2454946864
H        1.8368945872   -0.0742215863    2.1208701768
