
Host: aaojha

Timers On : Fri May 14 09:02:16 2021
Timers Off: Fri May 14 09:02:25 2021

Wall Time:        9.96 seconds

                                                       Time (seconds)
Module                                       User      System        Wall        Calls
V: Grid                             :      1.300u      0.017s      0.789w      1 calls
DFH: sparsity prep                  :      0.017u      0.000s      0.013w      1 calls
DFH: initialize()                   :      0.683u      0.017s      0.424w      1 calls
DFH: AO Construction                :      0.283u      0.000s      0.169w      1 calls
DFH: AO-Met. Contraction            :      0.067u      0.017s      0.049w      1 calls
HF: Form core H                     :      0.000u      0.000s      0.000w      1 calls
HF: Form S/X                        :      0.000u      0.000s      0.000w      1 calls
HF: Guess                           :      0.267u      0.000s      0.164w      1 calls
SAD Guess                           :      0.267u      0.000s      0.156w      1 calls
HF: Form G                          :      8.667u      0.167s      5.283w     14 calls
RV: Form V                          :      8.633u      0.167s      5.257w     14 calls
Properties                          :      2.717u      0.083s      1.606w  44340 calls
Functional                          :      4.250u      0.067s      2.742w  44340 calls
V_xc                                :      2.533u      0.017s      1.394w  41384 calls
JK: D                               :      0.000u      0.000s      0.000w     14 calls
JK: USO2AO                          :      0.000u      0.000s      0.000w     14 calls
JK: JK                              :      0.033u      0.000s      0.024w     14 calls
DFH: compute_JK()                   :      0.033u      0.000s      0.024w     14 calls
DFH: Grabbing AOs                   :      0.000u      0.000s      0.000w     14 calls
DFH: compute_J                      :      0.033u      0.000s      0.024w     14 calls
JK: AO2USO                          :      0.000u      0.000s      0.000w     14 calls
HF: Form F                          :      0.000u      0.000s      0.000w     14 calls
HF: Form D                          :      0.000u      0.000s      0.000w     14 calls
HF: DIIS                            :      0.000u      0.000s      0.006w     13 calls
DIISManager::add_entry              :      0.000u      0.000s      0.001w     13 calls
DIISManager::extrapolate            :      0.000u      0.000s      0.002w     13 calls
bMatrix setup                       :      0.000u      0.000s      0.001w     13 calls
bMatrix pseudoinverse               :      0.000u      0.000s      0.000w     13 calls
New vector                          :      0.000u      0.000s      0.001w     13 calls
HF: Form C                          :      0.000u      0.000s      0.003w     13 calls
Grad: V T Perturb                   :      0.100u      0.000s      0.053w      1 calls
Grad: S                             :      0.000u      0.000s      0.001w      1 calls
Grad: JK                            :      1.933u      0.000s      1.178w      1 calls
JKGrad: Amn                         :      0.300u      0.000s      0.179w      1 calls
JKGrad: Awmn                        :      0.000u      0.000s      0.000w      1 calls
JKGrad: AB                          :      0.283u      0.000s      0.170w      1 calls
JKGrad: UV                          :      0.000u      0.000s      0.000w      1 calls
JKGrad: ABx                         :      0.133u      0.000s      0.077w      1 calls
JKGrad: Amnx                        :      1.200u      0.000s      0.729w      1 calls
Grad: XC                            :      1.450u      0.000s      0.869w      1 calls
V_xc gradient                       :      0.400u      0.000s      0.314w   2956 calls

--------------------------------------------------------------------------------------
V: Grid                             :      1.300u      0.017s      0.789w      1 calls
DFH: sparsity prep                  :      0.017u      0.000s      0.013w      1 calls
DFH: initialize()                   :      0.683u      0.017s      0.424w      1 calls
| DFH: AO Construction              :      0.283u      0.000s      0.169w      1 calls
| DFH: AO-Met. Contraction          :      0.067u      0.017s      0.049w      1 calls
HF: Form core H                     :      0.000u      0.000s      0.000w      1 calls
HF: Form S/X                        :      0.000u      0.000s      0.000w      1 calls
HF: Guess                           :      0.267u      0.000s      0.164w      1 calls
| SAD Guess                         :      0.267u      0.000s      0.156w      1 calls
HF: Form G                          :      8.667u      0.167s      5.283w     14 calls
| RV: Form V                        :      8.633u      0.167s      5.257w     14 calls
| | Properties                      :      2.033u      0.083s      1.240w  41384 calls
| | Functional                      :      3.933u      0.067s      2.558w  41384 calls
| | V_xc                            :      2.533u      0.017s      1.394w  41384 calls
| JK: D                             :      0.000u      0.000s      0.000w     14 calls
| JK: USO2AO                        :      0.000u      0.000s      0.000w     14 calls
| JK: JK                            :      0.033u      0.000s      0.024w     14 calls
| | DFH: compute_JK()               :      0.033u      0.000s      0.024w     14 calls
| | | DFH: Grabbing AOs             :      0.000u      0.000s      0.000w     14 calls
| | | DFH: compute_J                :      0.033u      0.000s      0.024w     14 calls
| JK: AO2USO                        :      0.000u      0.000s      0.000w     14 calls
HF: Form F                          :      0.000u      0.000s      0.000w     14 calls
HF: Form D                          :      0.000u      0.000s      0.000w     14 calls
HF: DIIS                            :      0.000u      0.000s      0.006w     13 calls
| DIISManager::add_entry            :      0.000u      0.000s      0.001w     13 calls
| DIISManager::extrapolate          :      0.000u      0.000s      0.002w     13 calls
| | bMatrix setup                   :      0.000u      0.000s      0.001w     13 calls
| | bMatrix pseudoinverse           :      0.000u      0.000s      0.000w     13 calls
| | New vector                      :      0.000u      0.000s      0.001w     13 calls
HF: Form C                          :      0.000u      0.000s      0.003w     13 calls
Grad: V T Perturb                   :      0.100u      0.000s      0.053w      1 calls
Grad: S                             :      0.000u      0.000s      0.001w      1 calls
Grad: JK                            :      1.933u      0.000s      1.178w      1 calls
| JKGrad: Amn                       :      0.300u      0.000s      0.179w      1 calls
| JKGrad: Awmn                      :      0.000u      0.000s      0.000w      1 calls
| JKGrad: AB                        :      0.283u      0.000s      0.170w      1 calls
| JKGrad: UV                        :      0.000u      0.000s      0.000w      1 calls
| JKGrad: ABx                       :      0.133u      0.000s      0.077w      1 calls
| JKGrad: Amnx                      :      1.200u      0.000s      0.729w      1 calls
Grad: XC                            :      1.450u      0.000s      0.869w      1 calls
| Properties                        :      0.683u      0.000s      0.366w   2956 calls
| Functional                        :      0.317u      0.000s      0.185w   2956 calls
| V_xc gradient                     :      0.400u      0.000s      0.314w   2956 calls

**************************************************************************************

Host: aaojha

Timers On : Fri May 14 09:02:26 2021
Timers Off: Fri May 14 09:02:36 2021

Wall Time:       10.33 seconds

                                                       Time (seconds)
Module                                       User      System        Wall        Calls
V: Grid                             :      1.250u      0.033s      0.780w      1 calls
DFH: sparsity prep                  :      0.033u      0.000s      0.013w      1 calls
DFH: initialize()                   :      0.667u      0.033s      0.420w      1 calls
DFH: AO Construction                :      0.283u      0.000s      0.167w      1 calls
DFH: AO-Met. Contraction            :      0.083u      0.017s      0.054w      1 calls
HF: Form core H                     :      0.000u      0.000s      0.000w      1 calls
HF: Form S/X                        :      0.000u      0.000s      0.000w      1 calls
HF: Guess                           :      0.267u      0.000s      0.166w      1 calls
SAD Guess                           :      0.250u      0.000s      0.159w      1 calls
HF: Form G                          :      9.300u      0.117s      5.630w     15 calls
RV: Form V                          :      9.200u      0.117s      5.604w     15 calls
Properties                          :      2.817u      0.033s      1.680w  47280 calls
Functional                          :      4.533u      0.050s      2.912w  47280 calls
V_xc                                :      2.667u      0.033s      1.491w  44325 calls
JK: D                               :      0.000u      0.000s      0.000w     15 calls
JK: USO2AO                          :      0.000u      0.000s      0.000w     15 calls
JK: JK                              :      0.100u      0.000s      0.025w     15 calls
DFH: compute_JK()                   :      0.100u      0.000s      0.025w     15 calls
DFH: Grabbing AOs                   :      0.000u      0.000s      0.000w     15 calls
DFH: compute_J                      :      0.083u      0.000s      0.025w     15 calls
JK: AO2USO                          :      0.000u      0.000s      0.000w     15 calls
HF: Form F                          :      0.000u      0.000s      0.000w     15 calls
HF: Form D                          :      0.000u      0.000s      0.000w     15 calls
HF: DIIS                            :      0.000u      0.000s      0.007w     14 calls
DIISManager::add_entry              :      0.000u      0.000s      0.001w     14 calls
DIISManager::extrapolate            :      0.000u      0.000s      0.002w     14 calls
bMatrix setup                       :      0.000u      0.000s      0.001w     14 calls
bMatrix pseudoinverse               :      0.000u      0.000s      0.001w     14 calls
New vector                          :      0.000u      0.000s      0.001w     14 calls
HF: Form C                          :      0.000u      0.000s      0.003w     14 calls
Grad: V T Perturb                   :      0.100u      0.000s      0.056w      1 calls
Grad: S                             :      0.000u      0.000s      0.001w      1 calls
Grad: JK                            :      1.967u      0.000s      1.187w      1 calls
JKGrad: Amn                         :      0.300u      0.000s      0.183w      1 calls
JKGrad: Awmn                        :      0.000u      0.000s      0.000w      1 calls
JKGrad: AB                          :      0.300u      0.000s      0.175w      1 calls
JKGrad: UV                          :      0.000u      0.000s      0.000w      1 calls
JKGrad: ABx                         :      0.133u      0.000s      0.078w      1 calls
JKGrad: Amnx                        :      1.217u      0.000s      0.728w      1 calls
Grad: XC                            :      1.433u      0.017s      0.864w      1 calls
V_xc gradient                       :      0.417u      0.017s      0.312w   2955 calls

--------------------------------------------------------------------------------------
V: Grid                             :      1.250u      0.033s      0.780w      1 calls
DFH: sparsity prep                  :      0.033u      0.000s      0.013w      1 calls
DFH: initialize()                   :      0.667u      0.033s      0.420w      1 calls
| DFH: AO Construction              :      0.283u      0.000s      0.167w      1 calls
| DFH: AO-Met. Contraction          :      0.083u      0.017s      0.054w      1 calls
HF: Form core H                     :      0.000u      0.000s      0.000w      1 calls
HF: Form S/X                        :      0.000u      0.000s      0.000w      1 calls
HF: Guess                           :      0.267u      0.000s      0.166w      1 calls
| SAD Guess                         :      0.250u      0.000s      0.159w      1 calls
HF: Form G                          :      9.300u      0.117s      5.630w     15 calls
| RV: Form V                        :      9.200u      0.117s      5.604w     15 calls
| | Properties                      :      2.167u      0.033s      1.315w  44325 calls
| | Functional                      :      4.167u      0.050s      2.729w  44325 calls
| | V_xc                            :      2.667u      0.033s      1.491w  44325 calls
| JK: D                             :      0.000u      0.000s      0.000w     15 calls
| JK: USO2AO                        :      0.000u      0.000s      0.000w     15 calls
| JK: JK                            :      0.100u      0.000s      0.025w     15 calls
| | DFH: compute_JK()               :      0.100u      0.000s      0.025w     15 calls
| | | DFH: Grabbing AOs             :      0.000u      0.000s      0.000w     15 calls
| | | DFH: compute_J                :      0.083u      0.000s      0.025w     15 calls
| JK: AO2USO                        :      0.000u      0.000s      0.000w     15 calls
HF: Form F                          :      0.000u      0.000s      0.000w     15 calls
HF: Form D                          :      0.000u      0.000s      0.000w     15 calls
HF: DIIS                            :      0.000u      0.000s      0.007w     14 calls
| DIISManager::add_entry            :      0.000u      0.000s      0.001w     14 calls
| DIISManager::extrapolate          :      0.000u      0.000s      0.002w     14 calls
| | bMatrix setup                   :      0.000u      0.000s      0.001w     14 calls
| | bMatrix pseudoinverse           :      0.000u      0.000s      0.001w     14 calls
| | New vector                      :      0.000u      0.000s      0.001w     14 calls
HF: Form C                          :      0.000u      0.000s      0.003w     14 calls
Grad: V T Perturb                   :      0.100u      0.000s      0.056w      1 calls
Grad: S                             :      0.000u      0.000s      0.001w      1 calls
Grad: JK                            :      1.967u      0.000s      1.187w      1 calls
| JKGrad: Amn                       :      0.300u      0.000s      0.183w      1 calls
| JKGrad: Awmn                      :      0.000u      0.000s      0.000w      1 calls
| JKGrad: AB                        :      0.300u      0.000s      0.175w      1 calls
| JKGrad: UV                        :      0.000u      0.000s      0.000w      1 calls
| JKGrad: ABx                       :      0.133u      0.000s      0.078w      1 calls
| JKGrad: Amnx                      :      1.217u      0.000s      0.728w      1 calls
Grad: XC                            :      1.433u      0.017s      0.864w      1 calls
| Properties                        :      0.650u      0.000s      0.365w   2955 calls
| Functional                        :      0.367u      0.000s      0.183w   2955 calls
| V_xc gradient                     :      0.417u      0.017s      0.312w   2955 calls

**************************************************************************************

Host: aaojha

Timers On : Fri May 14 09:02:36 2021
Timers Off: Fri May 14 09:02:46 2021

Wall Time:       10.28 seconds

                                                       Time (seconds)
Module                                       User      System        Wall        Calls
V: Grid                             :      1.267u      0.000s      0.766w      1 calls
DFH: sparsity prep                  :      0.017u      0.000s      0.014w      1 calls
DFH: initialize()                   :      0.650u      0.050s      0.412w      1 calls
DFH: AO Construction                :      0.267u      0.000s      0.167w      1 calls
DFH: AO-Met. Contraction            :      0.067u      0.017s      0.049w      1 calls
HF: Form core H                     :      0.000u      0.000s      0.010w      1 calls
HF: Form S/X                        :      0.017u      0.000s      0.000w      1 calls
HF: Guess                           :      0.267u      0.000s      0.162w      1 calls
SAD Guess                           :      0.267u      0.000s      0.155w      1 calls
HF: Form G                          :      9.183u      0.167s      5.618w     15 calls
RV: Form V                          :      9.183u      0.167s      5.592w     15 calls
Properties                          :      2.583u      0.083s      1.657w  47392 calls
Functional                          :      4.450u      0.083s      2.950w  47392 calls
V_xc                                :      2.800u      0.000s      1.468w  44430 calls
JK: D                               :      0.000u      0.000s      0.000w     15 calls
JK: USO2AO                          :      0.000u      0.000s      0.000w     15 calls
JK: JK                              :      0.000u      0.000s      0.025w     15 calls
DFH: compute_JK()                   :      0.000u      0.000s      0.025w     15 calls
DFH: Grabbing AOs                   :      0.000u      0.000s      0.000w     15 calls
DFH: compute_J                      :      0.000u      0.000s      0.025w     15 calls
JK: AO2USO                          :      0.000u      0.000s      0.000w     15 calls
HF: Form F                          :      0.000u      0.000s      0.000w     15 calls
HF: Form D                          :      0.000u      0.000s      0.000w     15 calls
HF: DIIS                            :      0.017u      0.000s      0.007w     14 calls
DIISManager::add_entry              :      0.000u      0.000s      0.001w     14 calls
DIISManager::extrapolate            :      0.000u      0.000s      0.002w     14 calls
bMatrix setup                       :      0.000u      0.000s      0.001w     14 calls
bMatrix pseudoinverse               :      0.000u      0.000s      0.001w     14 calls
New vector                          :      0.000u      0.000s      0.001w     14 calls
HF: Form C                          :      0.033u      0.000s      0.004w     14 calls
Grad: V T Perturb                   :      0.083u      0.000s      0.054w      1 calls
Grad: S                             :      0.000u      0.000s      0.001w      1 calls
Grad: JK                            :      1.950u      0.000s      1.181w      1 calls
JKGrad: Amn                         :      0.300u      0.000s      0.181w      1 calls
JKGrad: Awmn                        :      0.000u      0.000s      0.000w      1 calls
JKGrad: AB                          :      0.300u      0.000s      0.175w      1 calls
JKGrad: UV                          :      0.000u      0.000s      0.000w      1 calls
JKGrad: ABx                         :      0.133u      0.000s      0.078w      1 calls
JKGrad: Amnx                        :      1.200u      0.000s      0.724w      1 calls
Grad: XC                            :      1.450u      0.000s      0.870w      1 calls
V_xc gradient                       :      0.617u      0.000s      0.317w   2962 calls

--------------------------------------------------------------------------------------
V: Grid                             :      1.267u      0.000s      0.766w      1 calls
DFH: sparsity prep                  :      0.017u      0.000s      0.014w      1 calls
DFH: initialize()                   :      0.650u      0.050s      0.412w      1 calls
| DFH: AO Construction              :      0.267u      0.000s      0.167w      1 calls
| DFH: AO-Met. Contraction          :      0.067u      0.017s      0.049w      1 calls
HF: Form core H                     :      0.000u      0.000s      0.010w      1 calls
HF: Form S/X                        :      0.017u      0.000s      0.000w      1 calls
HF: Guess                           :      0.267u      0.000s      0.162w      1 calls
| SAD Guess                         :      0.267u      0.000s      0.155w      1 calls
HF: Form G                          :      9.183u      0.167s      5.618w     15 calls
| RV: Form V                        :      9.183u      0.167s      5.592w     15 calls
| | Properties                      :      2.017u      0.083s      1.291w  44430 calls
| | Functional                      :      4.183u      0.083s      2.768w  44430 calls
| | V_xc                            :      2.800u      0.000s      1.468w  44430 calls
| JK: D                             :      0.000u      0.000s      0.000w     15 calls
| JK: USO2AO                        :      0.000u      0.000s      0.000w     15 calls
| JK: JK                            :      0.000u      0.000s      0.025w     15 calls
| | DFH: compute_JK()               :      0.000u      0.000s      0.025w     15 calls
| | | DFH: Grabbing AOs             :      0.000u      0.000s      0.000w     15 calls
| | | DFH: compute_J                :      0.000u      0.000s      0.025w     15 calls
| JK: AO2USO                        :      0.000u      0.000s      0.000w     15 calls
HF: Form F                          :      0.000u      0.000s      0.000w     15 calls
HF: Form D                          :      0.000u      0.000s      0.000w     15 calls
HF: DIIS                            :      0.017u      0.000s      0.007w     14 calls
| DIISManager::add_entry            :      0.000u      0.000s      0.001w     14 calls
| DIISManager::extrapolate          :      0.000u      0.000s      0.002w     14 calls
| | bMatrix setup                   :      0.000u      0.000s      0.001w     14 calls
| | bMatrix pseudoinverse           :      0.000u      0.000s      0.001w     14 calls
| | New vector                      :      0.000u      0.000s      0.001w     14 calls
HF: Form C                          :      0.033u      0.000s      0.004w     14 calls
Grad: V T Perturb                   :      0.083u      0.000s      0.054w      1 calls
Grad: S                             :      0.000u      0.000s      0.001w      1 calls
Grad: JK                            :      1.950u      0.000s      1.181w      1 calls
| JKGrad: Amn                       :      0.300u      0.000s      0.181w      1 calls
| JKGrad: Awmn                      :      0.000u      0.000s      0.000w      1 calls
| JKGrad: AB                        :      0.300u      0.000s      0.175w      1 calls
| JKGrad: UV                        :      0.000u      0.000s      0.000w      1 calls
| JKGrad: ABx                       :      0.133u      0.000s      0.078w      1 calls
| JKGrad: Amnx                      :      1.200u      0.000s      0.724w      1 calls
Grad: XC                            :      1.450u      0.000s      0.870w      1 calls
| Properties                        :      0.567u      0.000s      0.366w   2962 calls
| Functional                        :      0.267u      0.000s      0.183w   2962 calls
| V_xc gradient                     :      0.617u      0.000s      0.317w   2962 calls

**************************************************************************************

Host: aaojha

Timers On : Fri May 14 09:02:47 2021
Timers Off: Fri May 14 09:02:57 2021

Wall Time:       10.41 seconds

                                                       Time (seconds)
Module                                       User      System        Wall        Calls
V: Grid                             :      1.250u      0.033s      0.782w      1 calls
DFH: sparsity prep                  :      0.017u      0.000s      0.014w      1 calls
DFH: initialize()                   :      0.667u      0.033s      0.432w      1 calls
DFH: AO Construction                :      0.267u      0.017s      0.174w      1 calls
DFH: AO-Met. Contraction            :      0.083u      0.000s      0.053w      1 calls
HF: Form core H                     :      0.000u      0.000s      0.009w      1 calls
HF: Form S/X                        :      0.000u      0.000s      0.000w      1 calls
HF: Guess                           :      0.283u      0.000s      0.172w      1 calls
SAD Guess                           :      0.267u      0.000s      0.164w      1 calls
HF: Form G                          :      8.850u      0.100s      5.433w     14 calls
RV: Form V                          :      8.800u      0.100s      5.404w     14 calls
Properties                          :      2.717u      0.033s      1.689w  44415 calls
Functional                          :      4.667u      0.033s      2.840w  44415 calls
V_xc                                :      2.300u      0.033s      1.433w  41454 calls
JK: D                               :      0.000u      0.000s      0.000w     14 calls
JK: USO2AO                          :      0.000u      0.000s      0.000w     14 calls
JK: JK                              :      0.050u      0.000s      0.028w     14 calls
DFH: compute_JK()                   :      0.050u      0.000s      0.028w     14 calls
DFH: Grabbing AOs                   :      0.000u      0.000s      0.000w     14 calls
DFH: compute_J                      :      0.050u      0.000s      0.028w     14 calls
JK: AO2USO                          :      0.000u      0.000s      0.000w     14 calls
HF: Form F                          :      0.000u      0.000s      0.000w     14 calls
HF: Form D                          :      0.000u      0.000s      0.000w     14 calls
HF: DIIS                            :      0.017u      0.000s      0.006w     13 calls
DIISManager::add_entry              :      0.000u      0.000s      0.001w     13 calls
DIISManager::extrapolate            :      0.017u      0.000s      0.002w     13 calls
bMatrix setup                       :      0.000u      0.000s      0.001w     13 calls
bMatrix pseudoinverse               :      0.000u      0.000s      0.000w     13 calls
New vector                          :      0.017u      0.000s      0.000w     13 calls
HF: Form C                          :      0.017u      0.000s      0.003w     13 calls
Grad: V T Perturb                   :      0.100u      0.000s      0.056w      1 calls
Grad: S                             :      0.000u      0.000s      0.001w      1 calls
Grad: JK                            :      2.183u      0.000s      1.314w      1 calls
JKGrad: Amn                         :      0.333u      0.000s      0.195w      1 calls
JKGrad: Awmn                        :      0.000u      0.000s      0.000w      1 calls
JKGrad: AB                          :      0.300u      0.000s      0.183w      1 calls
JKGrad: UV                          :      0.000u      0.000s      0.000w      1 calls
JKGrad: ABx                         :      0.150u      0.000s      0.086w      1 calls
JKGrad: Amnx                        :      1.383u      0.000s      0.835w      1 calls
Grad: XC                            :      1.633u      0.000s      0.976w      1 calls
V_xc gradient                       :      0.583u      0.000s      0.349w   2961 calls

--------------------------------------------------------------------------------------
V: Grid                             :      1.250u      0.033s      0.782w      1 calls
DFH: sparsity prep                  :      0.017u      0.000s      0.014w      1 calls
DFH: initialize()                   :      0.667u      0.033s      0.432w      1 calls
| DFH: AO Construction              :      0.267u      0.017s      0.174w      1 calls
| DFH: AO-Met. Contraction          :      0.083u      0.000s      0.053w      1 calls
HF: Form core H                     :      0.000u      0.000s      0.009w      1 calls
HF: Form S/X                        :      0.000u      0.000s      0.000w      1 calls
HF: Guess                           :      0.283u      0.000s      0.172w      1 calls
| SAD Guess                         :      0.267u      0.000s      0.164w      1 calls
HF: Form G                          :      8.850u      0.100s      5.433w     14 calls
| RV: Form V                        :      8.800u      0.100s      5.404w     14 calls
| | Properties                      :      2.033u      0.033s      1.274w  41454 calls
| | Functional                      :      4.300u      0.033s      2.633w  41454 calls
| | V_xc                            :      2.300u      0.033s      1.433w  41454 calls
| JK: D                             :      0.000u      0.000s      0.000w     14 calls
| JK: USO2AO                        :      0.000u      0.000s      0.000w     14 calls
| JK: JK                            :      0.050u      0.000s      0.028w     14 calls
| | DFH: compute_JK()               :      0.050u      0.000s      0.028w     14 calls
| | | DFH: Grabbing AOs             :      0.000u      0.000s      0.000w     14 calls
| | | DFH: compute_J                :      0.050u      0.000s      0.028w     14 calls
| JK: AO2USO                        :      0.000u      0.000s      0.000w     14 calls
HF: Form F                          :      0.000u      0.000s      0.000w     14 calls
HF: Form D                          :      0.000u      0.000s      0.000w     14 calls
HF: DIIS                            :      0.017u      0.000s      0.006w     13 calls
| DIISManager::add_entry            :      0.000u      0.000s      0.001w     13 calls
| DIISManager::extrapolate          :      0.017u      0.000s      0.002w     13 calls
| | bMatrix setup                   :      0.000u      0.000s      0.001w     13 calls
| | bMatrix pseudoinverse           :      0.000u      0.000s      0.000w     13 calls
| | New vector                      :      0.017u      0.000s      0.000w     13 calls
HF: Form C                          :      0.017u      0.000s      0.003w     13 calls
Grad: V T Perturb                   :      0.100u      0.000s      0.056w      1 calls
Grad: S                             :      0.000u      0.000s      0.001w      1 calls
Grad: JK                            :      2.183u      0.000s      1.314w      1 calls
| JKGrad: Amn                       :      0.333u      0.000s      0.195w      1 calls
| JKGrad: Awmn                      :      0.000u      0.000s      0.000w      1 calls
| JKGrad: AB                        :      0.300u      0.000s      0.183w      1 calls
| JKGrad: UV                        :      0.000u      0.000s      0.000w      1 calls
| JKGrad: ABx                       :      0.150u      0.000s      0.086w      1 calls
| JKGrad: Amnx                      :      1.383u      0.000s      0.835w      1 calls
Grad: XC                            :      1.633u      0.000s      0.976w      1 calls
| Properties                        :      0.683u      0.000s      0.415w   2961 calls
| Functional                        :      0.367u      0.000s      0.207w   2961 calls
| V_xc gradient                     :      0.583u      0.000s      0.349w   2961 calls

**************************************************************************************

Host: aaojha

Timers On : Fri May 14 09:02:57 2021
Timers Off: Fri May 14 09:03:09 2021

Wall Time:       11.14 seconds

                                                       Time (seconds)
Module                                       User      System        Wall        Calls
V: Grid                             :      1.467u      0.000s      0.877w      1 calls
DFH: sparsity prep                  :      0.033u      0.000s      0.015w      1 calls
DFH: initialize()                   :      0.700u      0.033s      0.433w      1 calls
DFH: AO Construction                :      0.300u      0.017s      0.178w      1 calls
DFH: AO-Met. Contraction            :      0.083u      0.000s      0.054w      1 calls
HF: Form core H                     :      0.000u      0.000s      0.000w      1 calls
HF: Form S/X                        :      0.000u      0.000s      0.000w      1 calls
HF: Guess                           :      0.283u      0.000s      0.171w      1 calls
SAD Guess                           :      0.267u      0.000s      0.162w      1 calls
HF: Form G                          :     10.100u      0.150s      6.153w     15 calls
RV: Form V                          :     10.083u      0.150s      6.125w     15 calls
Properties                          :      3.083u      0.033s      1.814w  47520 calls
Functional                          :      5.333u      0.067s      3.174w  47520 calls
V_xc                                :      2.517u      0.050s      1.632w  44550 calls
JK: D                               :      0.000u      0.000s      0.000w     15 calls
JK: USO2AO                          :      0.000u      0.000s      0.000w     15 calls
JK: JK                              :      0.017u      0.000s      0.027w     15 calls
DFH: compute_JK()                   :      0.017u      0.000s      0.027w     15 calls
DFH: Grabbing AOs                   :      0.000u      0.000s      0.000w     15 calls
DFH: compute_J                      :      0.017u      0.000s      0.027w     15 calls
JK: AO2USO                          :      0.000u      0.000s      0.000w     15 calls
HF: Form F                          :      0.000u      0.000s      0.000w     15 calls
HF: Form D                          :      0.000u      0.000s      0.000w     15 calls
HF: DIIS                            :      0.017u      0.000s      0.007w     14 calls
DIISManager::add_entry              :      0.017u      0.000s      0.001w     14 calls
DIISManager::extrapolate            :      0.000u      0.000s      0.002w     14 calls
bMatrix setup                       :      0.000u      0.000s      0.001w     14 calls
bMatrix pseudoinverse               :      0.000u      0.000s      0.001w     14 calls
New vector                          :      0.000u      0.000s      0.001w     14 calls
HF: Form C                          :      0.017u      0.000s      0.004w     14 calls
Grad: V T Perturb                   :      0.100u      0.000s      0.056w      1 calls
Grad: S                             :      0.000u      0.000s      0.001w      1 calls
Grad: JK                            :      2.067u      0.000s      1.251w      1 calls
JKGrad: Amn                         :      0.317u      0.000s      0.192w      1 calls
JKGrad: Awmn                        :      0.000u      0.000s      0.000w      1 calls
JKGrad: AB                          :      0.300u      0.000s      0.185w      1 calls
JKGrad: UV                          :      0.000u      0.000s      0.000w      1 calls
JKGrad: ABx                         :      0.150u      0.000s      0.083w      1 calls
JKGrad: Amnx                        :      1.267u      0.000s      0.768w      1 calls
Grad: XC                            :      1.483u      0.000s      0.891w      1 calls
V_xc gradient                       :      0.500u      0.000s      0.320w   2970 calls

--------------------------------------------------------------------------------------
V: Grid                             :      1.467u      0.000s      0.877w      1 calls
DFH: sparsity prep                  :      0.033u      0.000s      0.015w      1 calls
DFH: initialize()                   :      0.700u      0.033s      0.433w      1 calls
| DFH: AO Construction              :      0.300u      0.017s      0.178w      1 calls
| DFH: AO-Met. Contraction          :      0.083u      0.000s      0.054w      1 calls
HF: Form core H                     :      0.000u      0.000s      0.000w      1 calls
HF: Form S/X                        :      0.000u      0.000s      0.000w      1 calls
HF: Guess                           :      0.283u      0.000s      0.171w      1 calls
| SAD Guess                         :      0.267u      0.000s      0.162w      1 calls
HF: Form G                          :     10.100u      0.150s      6.153w     15 calls
| RV: Form V                        :     10.083u      0.150s      6.125w     15 calls
| | Properties                      :      2.417u      0.033s      1.439w  44550 calls
| | Functional                      :      5.033u      0.067s      2.984w  44550 calls
| | V_xc                            :      2.517u      0.050s      1.632w  44550 calls
| JK: D                             :      0.000u      0.000s      0.000w     15 calls
| JK: USO2AO                        :      0.000u      0.000s      0.000w     15 calls
| JK: JK                            :      0.017u      0.000s      0.027w     15 calls
| | DFH: compute_JK()               :      0.017u      0.000s      0.027w     15 calls
| | | DFH: Grabbing AOs             :      0.000u      0.000s      0.000w     15 calls
| | | DFH: compute_J                :      0.017u      0.000s      0.027w     15 calls
| JK: AO2USO                        :      0.000u      0.000s      0.000w     15 calls
HF: Form F                          :      0.000u      0.000s      0.000w     15 calls
HF: Form D                          :      0.000u      0.000s      0.000w     15 calls
HF: DIIS                            :      0.017u      0.000s      0.007w     14 calls
| DIISManager::add_entry            :      0.017u      0.000s      0.001w     14 calls
| DIISManager::extrapolate          :      0.000u      0.000s      0.002w     14 calls
| | bMatrix setup                   :      0.000u      0.000s      0.001w     14 calls
| | bMatrix pseudoinverse           :      0.000u      0.000s      0.001w     14 calls
| | New vector                      :      0.000u      0.000s      0.001w     14 calls
HF: Form C                          :      0.017u      0.000s      0.004w     14 calls
Grad: V T Perturb                   :      0.100u      0.000s      0.056w      1 calls
Grad: S                             :      0.000u      0.000s      0.001w      1 calls
Grad: JK                            :      2.067u      0.000s      1.251w      1 calls
| JKGrad: Amn                       :      0.317u      0.000s      0.192w      1 calls
| JKGrad: Awmn                      :      0.000u      0.000s      0.000w      1 calls
| JKGrad: AB                        :      0.300u      0.000s      0.185w      1 calls
| JKGrad: UV                        :      0.000u      0.000s      0.000w      1 calls
| JKGrad: ABx                       :      0.150u      0.000s      0.083w      1 calls
| JKGrad: Amnx                      :      1.267u      0.000s      0.768w      1 calls
Grad: XC                            :      1.483u      0.000s      0.891w      1 calls
| Properties                        :      0.667u      0.000s      0.376w   2970 calls
| Functional                        :      0.300u      0.000s      0.190w   2970 calls
| V_xc gradient                     :      0.500u      0.000s      0.320w   2970 calls

**************************************************************************************

Host: aaojha

Timers On : Fri May 14 09:03:09 2021
Timers Off: Fri May 14 09:03:19 2021

Wall Time:       10.12 seconds

                                                       Time (seconds)
Module                                       User      System        Wall        Calls
V: Grid                             :      1.283u      0.000s      0.775w      1 calls
DFH: sparsity prep                  :      0.033u      0.000s      0.013w      1 calls
DFH: initialize()                   :      0.650u      0.033s      0.412w      1 calls
DFH: AO Construction                :      0.267u      0.000s      0.164w      1 calls
DFH: AO-Met. Contraction            :      0.050u      0.033s      0.049w      1 calls
HF: Form core H                     :      0.000u      0.000s      0.000w      1 calls
HF: Form S/X                        :      0.000u      0.000s      0.000w      1 calls
HF: Guess                           :      0.283u      0.000s      0.169w      1 calls
SAD Guess                           :      0.267u      0.000s      0.161w      1 calls
HF: Form G                          :      8.817u      0.100s      5.349w     14 calls
RV: Form V                          :      8.783u      0.100s      5.325w     14 calls
Properties                          :      2.600u      0.017s      1.629w  44700 calls
Functional                          :      4.850u      0.083s      2.776w  44700 calls
V_xc                                :      2.250u      0.000s      1.417w  41720 calls
JK: D                               :      0.000u      0.000s      0.000w     14 calls
JK: USO2AO                          :      0.000u      0.000s      0.000w     14 calls
JK: JK                              :      0.033u      0.000s      0.023w     14 calls
DFH: compute_JK()                   :      0.033u      0.000s      0.023w     14 calls
DFH: Grabbing AOs                   :      0.000u      0.000s      0.000w     14 calls
DFH: compute_J                      :      0.033u      0.000s      0.023w     14 calls
JK: AO2USO                          :      0.000u      0.000s      0.000w     14 calls
HF: Form F                          :      0.000u      0.000s      0.000w     14 calls
HF: Form D                          :      0.000u      0.000s      0.000w     14 calls
HF: DIIS                            :      0.017u      0.000s      0.006w     13 calls
DIISManager::add_entry              :      0.000u      0.000s      0.001w     13 calls
DIISManager::extrapolate            :      0.000u      0.000s      0.002w     13 calls
bMatrix setup                       :      0.000u      0.000s      0.001w     13 calls
bMatrix pseudoinverse               :      0.000u      0.000s      0.000w     13 calls
New vector                          :      0.000u      0.000s      0.000w     13 calls
HF: Form C                          :      0.000u      0.000s      0.003w     13 calls
Grad: V T Perturb                   :      0.100u      0.000s      0.057w      1 calls
Grad: S                             :      0.000u      0.000s      0.001w      1 calls
Grad: JK                            :      2.017u      0.000s      1.213w      1 calls
JKGrad: Amn                         :      0.317u      0.000s      0.186w      1 calls
JKGrad: Awmn                        :      0.000u      0.000s      0.000w      1 calls
JKGrad: AB                          :      0.300u      0.000s      0.182w      1 calls
JKGrad: UV                          :      0.000u      0.000s      0.000w      1 calls
JKGrad: ABx                         :      0.133u      0.000s      0.080w      1 calls
JKGrad: Amnx                        :      1.233u      0.000s      0.743w      1 calls
Grad: XC                            :      1.467u      0.000s      0.888w      1 calls
V_xc gradient                       :      0.517u      0.000s      0.321w   2980 calls

--------------------------------------------------------------------------------------
V: Grid                             :      1.283u      0.000s      0.775w      1 calls
DFH: sparsity prep                  :      0.033u      0.000s      0.013w      1 calls
DFH: initialize()                   :      0.650u      0.033s      0.412w      1 calls
| DFH: AO Construction              :      0.267u      0.000s      0.164w      1 calls
| DFH: AO-Met. Contraction          :      0.050u      0.033s      0.049w      1 calls
HF: Form core H                     :      0.000u      0.000s      0.000w      1 calls
HF: Form S/X                        :      0.000u      0.000s      0.000w      1 calls
HF: Guess                           :      0.283u      0.000s      0.169w      1 calls
| SAD Guess                         :      0.267u      0.000s      0.161w      1 calls
HF: Form G                          :      8.817u      0.100s      5.349w     14 calls
| RV: Form V                        :      8.783u      0.100s      5.325w     14 calls
| | Properties                      :      2.000u      0.017s      1.254w  41720 calls
| | Functional                      :      4.500u      0.083s      2.589w  41720 calls
| | V_xc                            :      2.250u      0.000s      1.417w  41720 calls
| JK: D                             :      0.000u      0.000s      0.000w     14 calls
| JK: USO2AO                        :      0.000u      0.000s      0.000w     14 calls
| JK: JK                            :      0.033u      0.000s      0.023w     14 calls
| | DFH: compute_JK()               :      0.033u      0.000s      0.023w     14 calls
| | | DFH: Grabbing AOs             :      0.000u      0.000s      0.000w     14 calls
| | | DFH: compute_J                :      0.033u      0.000s      0.023w     14 calls
| JK: AO2USO                        :      0.000u      0.000s      0.000w     14 calls
HF: Form F                          :      0.000u      0.000s      0.000w     14 calls
HF: Form D                          :      0.000u      0.000s      0.000w     14 calls
HF: DIIS                            :      0.017u      0.000s      0.006w     13 calls
| DIISManager::add_entry            :      0.000u      0.000s      0.001w     13 calls
| DIISManager::extrapolate          :      0.000u      0.000s      0.002w     13 calls
| | bMatrix setup                   :      0.000u      0.000s      0.001w     13 calls
| | bMatrix pseudoinverse           :      0.000u      0.000s      0.000w     13 calls
| | New vector                      :      0.000u      0.000s      0.000w     13 calls
HF: Form C                          :      0.000u      0.000s      0.003w     13 calls
Grad: V T Perturb                   :      0.100u      0.000s      0.057w      1 calls
Grad: S                             :      0.000u      0.000s      0.001w      1 calls
Grad: JK                            :      2.017u      0.000s      1.213w      1 calls
| JKGrad: Amn                       :      0.317u      0.000s      0.186w      1 calls
| JKGrad: Awmn                      :      0.000u      0.000s      0.000w      1 calls
| JKGrad: AB                        :      0.300u      0.000s      0.182w      1 calls
| JKGrad: UV                        :      0.000u      0.000s      0.000w      1 calls
| JKGrad: ABx                       :      0.133u      0.000s      0.080w      1 calls
| JKGrad: Amnx                      :      1.233u      0.000s      0.743w      1 calls
Grad: XC                            :      1.467u      0.000s      0.888w      1 calls
| Properties                        :      0.600u      0.000s      0.375w   2980 calls
| Functional                        :      0.350u      0.000s      0.187w   2980 calls
| V_xc gradient                     :      0.517u      0.000s      0.321w   2980 calls

**************************************************************************************

Host: aaojha

Timers On : Fri May 14 09:03:19 2021
Timers Off: Fri May 14 09:03:29 2021

Wall Time:       10.02 seconds

                                                       Time (seconds)
Module                                       User      System        Wall        Calls
V: Grid                             :      1.300u      0.000s      0.792w      1 calls
DFH: sparsity prep                  :      0.017u      0.017s      0.013w      1 calls
DFH: initialize()                   :      0.667u      0.017s      0.413w      1 calls
DFH: AO Construction                :      0.283u      0.000s      0.167w      1 calls
DFH: AO-Met. Contraction            :      0.083u      0.000s      0.051w      1 calls
HF: Form core H                     :      0.000u      0.000s      0.002w      1 calls
HF: Form S/X                        :      0.000u      0.000s      0.000w      1 calls
HF: Guess                           :      0.283u      0.000s      0.165w      1 calls
SAD Guess                           :      0.267u      0.000s      0.158w      1 calls
HF: Form G                          :      8.650u      0.117s      5.269w     14 calls
RV: Form V                          :      8.633u      0.117s      5.244w     14 calls
Properties                          :      2.717u      0.017s      1.595w  44790 calls
Functional                          :      4.500u      0.067s      2.763w  44790 calls
V_xc                                :      2.300u      0.033s      1.388w  41804 calls
JK: D                               :      0.000u      0.000s      0.000w     14 calls
JK: USO2AO                          :      0.000u      0.000s      0.000w     14 calls
JK: JK                              :      0.017u      0.000s      0.024w     14 calls
DFH: compute_JK()                   :      0.017u      0.000s      0.024w     14 calls
DFH: Grabbing AOs                   :      0.000u      0.000s      0.000w     14 calls
DFH: compute_J                      :      0.017u      0.000s      0.024w     14 calls
JK: AO2USO                          :      0.000u      0.000s      0.000w     14 calls
HF: Form F                          :      0.000u      0.000s      0.000w     14 calls
HF: Form D                          :      0.000u      0.000s      0.000w     14 calls
HF: DIIS                            :      0.017u      0.000s      0.006w     13 calls
DIISManager::add_entry              :      0.000u      0.000s      0.001w     13 calls
DIISManager::extrapolate            :      0.000u      0.000s      0.001w     13 calls
bMatrix setup                       :      0.000u      0.000s      0.001w     13 calls
bMatrix pseudoinverse               :      0.000u      0.000s      0.000w     13 calls
New vector                          :      0.000u      0.000s      0.000w     13 calls
HF: Form C                          :      0.000u      0.000s      0.003w     13 calls
Grad: V T Perturb                   :      0.083u      0.000s      0.057w      1 calls
Grad: S                             :      0.017u      0.000s      0.001w      1 calls
Grad: JK                            :      2.000u      0.000s      1.211w      1 calls
JKGrad: Amn                         :      0.317u      0.000s      0.187w      1 calls
JKGrad: Awmn                        :      0.000u      0.000s      0.000w      1 calls
JKGrad: AB                          :      0.300u      0.000s      0.179w      1 calls
JKGrad: UV                          :      0.000u      0.000s      0.000w      1 calls
JKGrad: ABx                         :      0.133u      0.000s      0.081w      1 calls
JKGrad: Amnx                        :      1.233u      0.000s      0.748w      1 calls
Grad: XC                            :      1.483u      0.000s      0.883w      1 calls
V_xc gradient                       :      0.500u      0.000s      0.315w   2986 calls

--------------------------------------------------------------------------------------
V: Grid                             :      1.300u      0.000s      0.792w      1 calls
DFH: sparsity prep                  :      0.017u      0.017s      0.013w      1 calls
DFH: initialize()                   :      0.667u      0.017s      0.413w      1 calls
| DFH: AO Construction              :      0.283u      0.000s      0.167w      1 calls
| DFH: AO-Met. Contraction          :      0.083u      0.000s      0.051w      1 calls
HF: Form core H                     :      0.000u      0.000s      0.002w      1 calls
HF: Form S/X                        :      0.000u      0.000s      0.000w      1 calls
HF: Guess                           :      0.283u      0.000s      0.165w      1 calls
| SAD Guess                         :      0.267u      0.000s      0.158w      1 calls
HF: Form G                          :      8.650u      0.117s      5.269w     14 calls
| RV: Form V                        :      8.633u      0.117s      5.244w     14 calls
| | Properties                      :      2.033u      0.017s      1.222w  41804 calls
| | Functional                      :      4.200u      0.067s      2.572w  41804 calls
| | V_xc                            :      2.300u      0.033s      1.388w  41804 calls
| JK: D                             :      0.000u      0.000s      0.000w     14 calls
| JK: USO2AO                        :      0.000u      0.000s      0.000w     14 calls
| JK: JK                            :      0.017u      0.000s      0.024w     14 calls
| | DFH: compute_JK()               :      0.017u      0.000s      0.024w     14 calls
| | | DFH: Grabbing AOs             :      0.000u      0.000s      0.000w     14 calls
| | | DFH: compute_J                :      0.017u      0.000s      0.024w     14 calls
| JK: AO2USO                        :      0.000u      0.000s      0.000w     14 calls
HF: Form F                          :      0.000u      0.000s      0.000w     14 calls
HF: Form D                          :      0.000u      0.000s      0.000w     14 calls
HF: DIIS                            :      0.017u      0.000s      0.006w     13 calls
| DIISManager::add_entry            :      0.000u      0.000s      0.001w     13 calls
| DIISManager::extrapolate          :      0.000u      0.000s      0.001w     13 calls
| | bMatrix setup                   :      0.000u      0.000s      0.001w     13 calls
| | bMatrix pseudoinverse           :      0.000u      0.000s      0.000w     13 calls
| | New vector                      :      0.000u      0.000s      0.000w     13 calls
HF: Form C                          :      0.000u      0.000s      0.003w     13 calls
Grad: V T Perturb                   :      0.083u      0.000s      0.057w      1 calls
Grad: S                             :      0.017u      0.000s      0.001w      1 calls
Grad: JK                            :      2.000u      0.000s      1.211w      1 calls
| JKGrad: Amn                       :      0.317u      0.000s      0.187w      1 calls
| JKGrad: Awmn                      :      0.000u      0.000s      0.000w      1 calls
| JKGrad: AB                        :      0.300u      0.000s      0.179w      1 calls
| JKGrad: UV                        :      0.000u      0.000s      0.000w      1 calls
| JKGrad: ABx                       :      0.133u      0.000s      0.081w      1 calls
| JKGrad: Amnx                      :      1.233u      0.000s      0.748w      1 calls
Grad: XC                            :      1.483u      0.000s      0.883w      1 calls
| Properties                        :      0.683u      0.000s      0.372w   2986 calls
| Functional                        :      0.300u      0.000s      0.191w   2986 calls
| V_xc gradient                     :      0.500u      0.000s      0.315w   2986 calls

**************************************************************************************

Host: aaojha

Timers On : Fri May 14 09:03:30 2021
Timers Off: Fri May 14 09:03:40 2021

Wall Time:       10.06 seconds

                                                       Time (seconds)
Module                                       User      System        Wall        Calls
V: Grid                             :      1.300u      0.033s      0.794w      1 calls
DFH: sparsity prep                  :      0.033u      0.000s      0.013w      1 calls
DFH: initialize()                   :      0.683u      0.017s      0.415w      1 calls
DFH: AO Construction                :      0.283u      0.000s      0.169w      1 calls
DFH: AO-Met. Contraction            :      0.083u      0.000s      0.050w      1 calls
HF: Form core H                     :      0.000u      0.000s      0.010w      1 calls
HF: Form S/X                        :      0.000u      0.000s      0.000w      1 calls
HF: Guess                           :      0.283u      0.000s      0.164w      1 calls
SAD Guess                           :      0.267u      0.000s      0.157w      1 calls
HF: Form G                          :      8.550u      0.167s      5.259w     14 calls
RV: Form V                          :      8.550u      0.167s      5.235w     14 calls
Properties                          :      2.567u      0.050s      1.601w  44685 calls
Functional                          :      4.450u      0.083s      2.753w  44685 calls
V_xc                                :      2.200u      0.017s      1.390w  41706 calls
JK: D                               :      0.000u      0.000s      0.000w     14 calls
JK: USO2AO                          :      0.000u      0.000s      0.000w     14 calls
JK: JK                              :      0.000u      0.000s      0.023w     14 calls
DFH: compute_JK()                   :      0.000u      0.000s      0.023w     14 calls
DFH: Grabbing AOs                   :      0.000u      0.000s      0.000w     14 calls
DFH: compute_J                      :      0.000u      0.000s      0.022w     14 calls
JK: AO2USO                          :      0.000u      0.000s      0.000w     14 calls
HF: Form F                          :      0.000u      0.000s      0.000w     14 calls
HF: Form D                          :      0.000u      0.000s      0.000w     14 calls
HF: DIIS                            :      0.033u      0.000s      0.006w     13 calls
DIISManager::add_entry              :      0.017u      0.000s      0.001w     13 calls
DIISManager::extrapolate            :      0.000u      0.000s      0.002w     13 calls
bMatrix setup                       :      0.000u      0.000s      0.001w     13 calls
bMatrix pseudoinverse               :      0.000u      0.000s      0.000w     13 calls
New vector                          :      0.000u      0.000s      0.000w     13 calls
HF: Form C                          :      0.033u      0.000s      0.003w     13 calls
Grad: V T Perturb                   :      0.100u      0.000s      0.060w      1 calls
Grad: S                             :      0.000u      0.000s      0.002w      1 calls
Grad: JK                            :      2.033u      0.000s      1.232w      1 calls
JKGrad: Amn                         :      0.350u      0.000s      0.202w      1 calls
JKGrad: Awmn                        :      0.000u      0.000s      0.000w      1 calls
JKGrad: AB                          :      0.283u      0.000s      0.177w      1 calls
JKGrad: UV                          :      0.000u      0.000s      0.000w      1 calls
JKGrad: ABx                         :      0.133u      0.000s      0.080w      1 calls
JKGrad: Amnx                        :      1.250u      0.000s      0.749w      1 calls
Grad: XC                            :      1.500u      0.000s      0.902w      1 calls
V_xc gradient                       :      0.600u      0.000s      0.327w   2979 calls

--------------------------------------------------------------------------------------
V: Grid                             :      1.300u      0.033s      0.794w      1 calls
DFH: sparsity prep                  :      0.033u      0.000s      0.013w      1 calls
DFH: initialize()                   :      0.683u      0.017s      0.415w      1 calls
| DFH: AO Construction              :      0.283u      0.000s      0.169w      1 calls
| DFH: AO-Met. Contraction          :      0.083u      0.000s      0.050w      1 calls
HF: Form core H                     :      0.000u      0.000s      0.010w      1 calls
HF: Form S/X                        :      0.000u      0.000s      0.000w      1 calls
HF: Guess                           :      0.283u      0.000s      0.164w      1 calls
| SAD Guess                         :      0.267u      0.000s      0.157w      1 calls
HF: Form G                          :      8.550u      0.167s      5.259w     14 calls
| RV: Form V                        :      8.550u      0.167s      5.235w     14 calls
| | Properties                      :      1.917u      0.050s      1.221w  41706 calls
| | Functional                      :      4.217u      0.083s      2.563w  41706 calls
| | V_xc                            :      2.200u      0.017s      1.390w  41706 calls
| JK: D                             :      0.000u      0.000s      0.000w     14 calls
| JK: USO2AO                        :      0.000u      0.000s      0.000w     14 calls
| JK: JK                            :      0.000u      0.000s      0.023w     14 calls
| | DFH: compute_JK()               :      0.000u      0.000s      0.023w     14 calls
| | | DFH: Grabbing AOs             :      0.000u      0.000s      0.000w     14 calls
| | | DFH: compute_J                :      0.000u      0.000s      0.022w     14 calls
| JK: AO2USO                        :      0.000u      0.000s      0.000w     14 calls
HF: Form F                          :      0.000u      0.000s      0.000w     14 calls
HF: Form D                          :      0.000u      0.000s      0.000w     14 calls
HF: DIIS                            :      0.033u      0.000s      0.006w     13 calls
| DIISManager::add_entry            :      0.017u      0.000s      0.001w     13 calls
| DIISManager::extrapolate          :      0.000u      0.000s      0.002w     13 calls
| | bMatrix setup                   :      0.000u      0.000s      0.001w     13 calls
| | bMatrix pseudoinverse           :      0.000u      0.000s      0.000w     13 calls
| | New vector                      :      0.000u      0.000s      0.000w     13 calls
HF: Form C                          :      0.033u      0.000s      0.003w     13 calls
Grad: V T Perturb                   :      0.100u      0.000s      0.060w      1 calls
Grad: S                             :      0.000u      0.000s      0.002w      1 calls
Grad: JK                            :      2.033u      0.000s      1.232w      1 calls
| JKGrad: Amn                       :      0.350u      0.000s      0.202w      1 calls
| JKGrad: Awmn                      :      0.000u      0.000s      0.000w      1 calls
| JKGrad: AB                        :      0.283u      0.000s      0.177w      1 calls
| JKGrad: UV                        :      0.000u      0.000s      0.000w      1 calls
| JKGrad: ABx                       :      0.133u      0.000s      0.080w      1 calls
| JKGrad: Amnx                      :      1.250u      0.000s      0.749w      1 calls
Grad: XC                            :      1.500u      0.000s      0.902w      1 calls
| Properties                        :      0.650u      0.000s      0.379w   2979 calls
| Functional                        :      0.233u      0.000s      0.191w   2979 calls
| V_xc gradient                     :      0.600u      0.000s      0.327w   2979 calls

**************************************************************************************

Host: aaojha

Timers On : Fri May 14 09:03:40 2021
Timers Off: Fri May 14 09:03:51 2021

Wall Time:       10.62 seconds

                                                       Time (seconds)
Module                                       User      System        Wall        Calls
V: Grid                             :      1.300u      0.050s      0.817w      1 calls
DFH: sparsity prep                  :      0.017u      0.000s      0.013w      1 calls
DFH: initialize()                   :      0.683u      0.033s      0.428w      1 calls
DFH: AO Construction                :      0.283u      0.000s      0.170w      1 calls
DFH: AO-Met. Contraction            :      0.083u      0.017s      0.051w      1 calls
HF: Form core H                     :      0.000u      0.000s      0.010w      1 calls
HF: Form S/X                        :      0.000u      0.000s      0.001w      1 calls
HF: Guess                           :      0.283u      0.000s      0.177w      1 calls
SAD Guess                           :      0.267u      0.000s      0.162w      1 calls
HF: Form G                          :      9.433u      0.150s      5.767w     15 calls
RV: Form V                          :      9.433u      0.150s      5.741w     15 calls
Properties                          :      2.900u      0.050s      1.711w  47968 calls
Functional                          :      4.933u      0.100s      2.995w  47968 calls
V_xc                                :      2.333u      0.017s      1.522w  44970 calls
JK: D                               :      0.000u      0.000s      0.000w     15 calls
JK: USO2AO                          :      0.000u      0.000s      0.000w     15 calls
JK: JK                              :      0.000u      0.000s      0.025w     15 calls
DFH: compute_JK()                   :      0.000u      0.000s      0.025w     15 calls
DFH: Grabbing AOs                   :      0.000u      0.000s      0.000w     15 calls
DFH: compute_J                      :      0.000u      0.000s      0.025w     15 calls
JK: AO2USO                          :      0.000u      0.000s      0.000w     15 calls
HF: Form F                          :      0.000u      0.000s      0.000w     15 calls
HF: Form D                          :      0.000u      0.000s      0.000w     15 calls
HF: DIIS                            :      0.017u      0.000s      0.016w     14 calls
DIISManager::add_entry              :      0.000u      0.000s      0.010w     14 calls
DIISManager::extrapolate            :      0.000u      0.000s      0.002w     14 calls
bMatrix setup                       :      0.000u      0.000s      0.001w     14 calls
bMatrix pseudoinverse               :      0.000u      0.000s      0.001w     14 calls
New vector                          :      0.000u      0.000s      0.001w     14 calls
HF: Form C                          :      0.017u      0.000s      0.003w     14 calls
Grad: V T Perturb                   :      0.100u      0.000s      0.055w      1 calls
Grad: S                             :      0.000u      0.000s      0.001w      1 calls
Grad: JK                            :      2.050u      0.000s      1.246w      1 calls
JKGrad: Amn                         :      0.317u      0.000s      0.185w      1 calls
JKGrad: Awmn                        :      0.000u      0.000s      0.000w      1 calls
JKGrad: AB                          :      0.283u      0.000s      0.174w      1 calls
JKGrad: UV                          :      0.000u      0.000s      0.000w      1 calls
JKGrad: ABx                         :      0.133u      0.000s      0.079w      1 calls
JKGrad: Amnx                        :      1.300u      0.000s      0.784w      1 calls
Grad: XC                            :      1.450u      0.017s      0.874w      1 calls
V_xc gradient                       :      0.650u      0.000s      0.314w   2998 calls

--------------------------------------------------------------------------------------
V: Grid                             :      1.300u      0.050s      0.817w      1 calls
DFH: sparsity prep                  :      0.017u      0.000s      0.013w      1 calls
DFH: initialize()                   :      0.683u      0.033s      0.428w      1 calls
| DFH: AO Construction              :      0.283u      0.000s      0.170w      1 calls
| DFH: AO-Met. Contraction          :      0.083u      0.017s      0.051w      1 calls
HF: Form core H                     :      0.000u      0.000s      0.010w      1 calls
HF: Form S/X                        :      0.000u      0.000s      0.001w      1 calls
HF: Guess                           :      0.283u      0.000s      0.177w      1 calls
| SAD Guess                         :      0.267u      0.000s      0.162w      1 calls
HF: Form G                          :      9.433u      0.150s      5.767w     15 calls
| RV: Form V                        :      9.433u      0.150s      5.741w     15 calls
| | Properties                      :      2.300u      0.050s      1.345w  44970 calls
| | Functional                      :      4.733u      0.083s      2.807w  44970 calls
| | V_xc                            :      2.333u      0.017s      1.522w  44970 calls
| JK: D                             :      0.000u      0.000s      0.000w     15 calls
| JK: USO2AO                        :      0.000u      0.000s      0.000w     15 calls
| JK: JK                            :      0.000u      0.000s      0.025w     15 calls
| | DFH: compute_JK()               :      0.000u      0.000s      0.025w     15 calls
| | | DFH: Grabbing AOs             :      0.000u      0.000s      0.000w     15 calls
| | | DFH: compute_J                :      0.000u      0.000s      0.025w     15 calls
| JK: AO2USO                        :      0.000u      0.000s      0.000w     15 calls
HF: Form F                          :      0.000u      0.000s      0.000w     15 calls
HF: Form D                          :      0.000u      0.000s      0.000w     15 calls
HF: DIIS                            :      0.017u      0.000s      0.016w     14 calls
| DIISManager::add_entry            :      0.000u      0.000s      0.010w     14 calls
| DIISManager::extrapolate          :      0.000u      0.000s      0.002w     14 calls
| | bMatrix setup                   :      0.000u      0.000s      0.001w     14 calls
| | bMatrix pseudoinverse           :      0.000u      0.000s      0.001w     14 calls
| | New vector                      :      0.000u      0.000s      0.001w     14 calls
HF: Form C                          :      0.017u      0.000s      0.003w     14 calls
Grad: V T Perturb                   :      0.100u      0.000s      0.055w      1 calls
Grad: S                             :      0.000u      0.000s      0.001w      1 calls
Grad: JK                            :      2.050u      0.000s      1.246w      1 calls
| JKGrad: Amn                       :      0.317u      0.000s      0.185w      1 calls
| JKGrad: Awmn                      :      0.000u      0.000s      0.000w      1 calls
| JKGrad: AB                        :      0.283u      0.000s      0.174w      1 calls
| JKGrad: UV                        :      0.000u      0.000s      0.000w      1 calls
| JKGrad: ABx                       :      0.133u      0.000s      0.079w      1 calls
| JKGrad: Amnx                      :      1.300u      0.000s      0.784w      1 calls
Grad: XC                            :      1.450u      0.017s      0.874w      1 calls
| Properties                        :      0.600u      0.000s      0.366w   2998 calls
| Functional                        :      0.200u      0.017s      0.188w   2998 calls
| V_xc gradient                     :      0.650u      0.000s      0.314w   2998 calls

**************************************************************************************

Host: aaojha

Timers On : Fri May 14 09:03:51 2021
Timers Off: Fri May 14 09:04:01 2021

Wall Time:       10.00 seconds

                                                       Time (seconds)
Module                                       User      System        Wall        Calls
V: Grid                             :      1.267u      0.017s      0.774w      1 calls
DFH: sparsity prep                  :      0.017u      0.000s      0.014w      1 calls
DFH: initialize()                   :      0.633u      0.033s      0.402w      1 calls
DFH: AO Construction                :      0.267u      0.000s      0.161w      1 calls
DFH: AO-Met. Contraction            :      0.083u      0.000s      0.050w      1 calls
HF: Form core H                     :      0.000u      0.000s      0.002w      1 calls
HF: Form S/X                        :      0.000u      0.000s      0.000w      1 calls
HF: Guess                           :      0.283u      0.000s      0.165w      1 calls
SAD Guess                           :      0.267u      0.000s      0.158w      1 calls
HF: Form G                          :      8.767u      0.083s      5.329w     14 calls
RV: Form V                          :      8.750u      0.083s      5.303w     14 calls
Properties                          :      2.533u      0.067s      1.602w  44820 calls
Functional                          :      4.783u      0.033s      2.798w  44820 calls
V_xc                                :      2.300u      0.000s      1.399w  41832 calls
JK: D                               :      0.000u      0.000s      0.000w     14 calls
JK: USO2AO                          :      0.000u      0.000s      0.000w     14 calls
JK: JK                              :      0.000u      0.000s      0.025w     14 calls
DFH: compute_JK()                   :      0.000u      0.000s      0.025w     14 calls
DFH: Grabbing AOs                   :      0.000u      0.000s      0.000w     14 calls
DFH: compute_J                      :      0.000u      0.000s      0.025w     14 calls
JK: AO2USO                          :      0.000u      0.000s      0.000w     14 calls
HF: Form F                          :      0.000u      0.000s      0.000w     14 calls
HF: Form D                          :      0.000u      0.000s      0.000w     14 calls
HF: DIIS                            :      0.033u      0.000s      0.006w     13 calls
DIISManager::add_entry              :      0.017u      0.000s      0.001w     13 calls
DIISManager::extrapolate            :      0.000u      0.000s      0.002w     13 calls
bMatrix setup                       :      0.000u      0.000s      0.001w     13 calls
bMatrix pseudoinverse               :      0.000u      0.000s      0.000w     13 calls
New vector                          :      0.000u      0.000s      0.000w     13 calls
HF: Form C                          :      0.017u      0.000s      0.003w     13 calls
Grad: V T Perturb                   :      0.083u      0.000s      0.054w      1 calls
Grad: S                             :      0.000u      0.000s      0.001w      1 calls
Grad: JK                            :      1.950u      0.000s      1.176w      1 calls
JKGrad: Amn                         :      0.300u      0.000s      0.180w      1 calls
JKGrad: Awmn                        :      0.000u      0.000s      0.000w      1 calls
JKGrad: AB                          :      0.283u      0.000s      0.173w      1 calls
JKGrad: UV                          :      0.000u      0.000s      0.000w      1 calls
JKGrad: ABx                         :      0.133u      0.000s      0.077w      1 calls
JKGrad: Amnx                        :      1.200u      0.000s      0.722w      1 calls
Grad: XC                            :      1.450u      0.017s      0.884w      1 calls
V_xc gradient                       :      0.433u      0.000s      0.319w   2988 calls

--------------------------------------------------------------------------------------
V: Grid                             :      1.267u      0.017s      0.774w      1 calls
DFH: sparsity prep                  :      0.017u      0.000s      0.014w      1 calls
DFH: initialize()                   :      0.633u      0.033s      0.402w      1 calls
| DFH: AO Construction              :      0.267u      0.000s      0.161w      1 calls
| DFH: AO-Met. Contraction          :      0.083u      0.000s      0.050w      1 calls
HF: Form core H                     :      0.000u      0.000s      0.002w      1 calls
HF: Form S/X                        :      0.000u      0.000s      0.000w      1 calls
HF: Guess                           :      0.283u      0.000s      0.165w      1 calls
| SAD Guess                         :      0.267u      0.000s      0.158w      1 calls
HF: Form G                          :      8.767u      0.083s      5.329w     14 calls
| RV: Form V                        :      8.750u      0.083s      5.303w     14 calls
| | Properties                      :      1.933u      0.050s      1.230w  41832 calls
| | Functional                      :      4.367u      0.033s      2.611w  41832 calls
| | V_xc                            :      2.300u      0.000s      1.399w  41832 calls
| JK: D                             :      0.000u      0.000s      0.000w     14 calls
| JK: USO2AO                        :      0.000u      0.000s      0.000w     14 calls
| JK: JK                            :      0.000u      0.000s      0.025w     14 calls
| | DFH: compute_JK()               :      0.000u      0.000s      0.025w     14 calls
| | | DFH: Grabbing AOs             :      0.000u      0.000s      0.000w     14 calls
| | | DFH: compute_J                :      0.000u      0.000s      0.025w     14 calls
| JK: AO2USO                        :      0.000u      0.000s      0.000w     14 calls
HF: Form F                          :      0.000u      0.000s      0.000w     14 calls
HF: Form D                          :      0.000u      0.000s      0.000w     14 calls
HF: DIIS                            :      0.033u      0.000s      0.006w     13 calls
| DIISManager::add_entry            :      0.017u      0.000s      0.001w     13 calls
| DIISManager::extrapolate          :      0.000u      0.000s      0.002w     13 calls
| | bMatrix setup                   :      0.000u      0.000s      0.001w     13 calls
| | bMatrix pseudoinverse           :      0.000u      0.000s      0.000w     13 calls
| | New vector                      :      0.000u      0.000s      0.000w     13 calls
HF: Form C                          :      0.017u      0.000s      0.003w     13 calls
Grad: V T Perturb                   :      0.083u      0.000s      0.054w      1 calls
Grad: S                             :      0.000u      0.000s      0.001w      1 calls
Grad: JK                            :      1.950u      0.000s      1.176w      1 calls
| JKGrad: Amn                       :      0.300u      0.000s      0.180w      1 calls
| JKGrad: Awmn                      :      0.000u      0.000s      0.000w      1 calls
| JKGrad: AB                        :      0.283u      0.000s      0.173w      1 calls
| JKGrad: UV                        :      0.000u      0.000s      0.000w      1 calls
| JKGrad: ABx                       :      0.133u      0.000s      0.077w      1 calls
| JKGrad: Amnx                      :      1.200u      0.000s      0.722w      1 calls
Grad: XC                            :      1.450u      0.017s      0.884w      1 calls
| Properties                        :      0.600u      0.017s      0.372w   2988 calls
| Functional                        :      0.417u      0.000s      0.188w   2988 calls
| V_xc gradient                     :      0.433u      0.000s      0.319w   2988 calls

**************************************************************************************

Host: aaojha

Timers On : Fri May 14 09:04:01 2021
Timers Off: Fri May 14 09:04:11 2021

Wall Time:       10.04 seconds

                                                       Time (seconds)
Module                                       User      System        Wall        Calls
V: Grid                             :      1.250u      0.033s      0.773w      1 calls
DFH: sparsity prep                  :      0.017u      0.000s      0.014w      1 calls
DFH: initialize()                   :      0.683u      0.017s      0.421w      1 calls
DFH: AO Construction                :      0.267u      0.000s      0.165w      1 calls
DFH: AO-Met. Contraction            :      0.083u      0.000s      0.051w      1 calls
HF: Form core H                     :      0.000u      0.000s      0.010w      1 calls
HF: Form S/X                        :      0.000u      0.000s      0.001w      1 calls
HF: Guess                           :      0.283u      0.000s      0.170w      1 calls
SAD Guess                           :      0.267u      0.000s      0.161w      1 calls
HF: Form G                          :      8.750u      0.150s      5.328w     14 calls
RV: Form V                          :      8.683u      0.150s      5.302w     14 calls
Properties                          :      2.800u      0.033s      1.628w  44565 calls
Functional                          :      4.367u      0.083s      2.762w  44565 calls
V_xc                                :      2.217u      0.033s      1.406w  41594 calls
JK: D                               :      0.000u      0.000s      0.000w     14 calls
JK: USO2AO                          :      0.000u      0.000s      0.000w     14 calls
JK: JK                              :      0.067u      0.000s      0.025w     14 calls
DFH: compute_JK()                   :      0.067u      0.000s      0.025w     14 calls
DFH: Grabbing AOs                   :      0.000u      0.000s      0.000w     14 calls
DFH: compute_J                      :      0.067u      0.000s      0.025w     14 calls
JK: AO2USO                          :      0.000u      0.000s      0.000w     14 calls
HF: Form F                          :      0.000u      0.000s      0.000w     14 calls
HF: Form D                          :      0.000u      0.000s      0.000w     14 calls
HF: DIIS                            :      0.000u      0.000s      0.006w     13 calls
[...]
JKGrad: AB                          :      0.300u      0.000s      0.180w      1 calls
JKGrad: UV                          :      0.000u      0.000s      0.000w      1 calls
JKGrad: ABx                         :      0.133u      0.000s      0.082w      1 calls
JKGrad: Amnx                        :      1.183u      0.017s      0.728w      1 calls
Grad: XC                            :      1.417u      0.017s      0.883w      1 calls
V_xc gradient                       :      0.517u      0.017s      0.322w   2994 calls

--------------------------------------------------------------------------------------
V: Grid                             :      1.250u      0.017s      0.784w      1 calls
DFH: sparsity prep                  :      0.017u      0.000s      0.014w      1 calls
DFH: initialize()                   :      0.650u      0.033s      0.412w      1 calls
| DFH: AO Construction              :      0.250u      0.017s      0.164w      1 calls
| DFH: AO-Met. Contraction          :      0.067u      0.017s      0.048w      1 calls
HF: Form core H                     :      0.000u      0.000s      0.010w      1 calls
HF: Form S/X                        :      0.000u      0.000s      0.000w      1 calls
HF: Guess                           :      0.267u      0.017s      0.166w      1 calls
| SAD Guess                         :      0.267u      0.017s      0.159w      1 calls
HF: Form G                          :      8.617u      0.133s      5.379w     14 calls
| RV: Form V                        :      8.600u      0.133s      5.354w     14 calls
| | Properties                      :      2.133u      0.050s      1.247w  41916 calls
| | Functional                      :      4.150u      0.067s      2.617w  41916 calls
| | V_xc                            :      2.150u      0.017s      1.426w  41916 calls
| JK: D                             :      0.000u      0.000s      0.000w     14 calls
| JK: USO2AO                        :      0.000u      0.000s      0.000w     14 calls
| JK: JK                            :      0.017u      0.000s      0.024w     14 calls
| | DFH: compute_JK()               :      0.017u      0.000s      0.024w     14 calls
| | | DFH: Grabbing AOs             :      0.000u      0.000s      0.000w     14 calls
| | | DFH: compute_J                :      0.017u      0.000s      0.024w     14 calls
| JK: AO2USO                        :      0.000u      0.000s      0.000w     14 calls
HF: Form F                          :      0.000u      0.000s      0.000w     14 calls
HF: Form D                          :      0.000u      0.000s      0.000w     14 calls
HF: DIIS                            :      0.050u      0.000s      0.007w     13 calls
| DIISManager::add_entry            :      0.000u      0.000s      0.001w     13 calls
| DIISManager::extrapolate          :      0.000u      0.000s      0.002w     13 calls
| | bMatrix setup                   :      0.000u      0.000s      0.001w     13 calls
| | bMatrix pseudoinverse           :      0.000u      0.000s      0.001w     13 calls
| | New vector                      :      0.000u      0.000s      0.000w     13 calls
HF: Form C                          :      0.000u      0.000s      0.003w     13 calls
Grad: V T Perturb                   :      0.083u      0.000s      0.056w      1 calls
Grad: S                             :      0.017u      0.000s      0.001w      1 calls
Grad: JK                            :      1.933u      0.017s      1.198w      1 calls
| JKGrad: Amn                       :      0.300u      0.000s      0.183w      1 calls
| JKGrad: Awmn                      :      0.000u      0.000s      0.000w      1 calls
| JKGrad: AB                        :      0.300u      0.000s      0.180w      1 calls
| JKGrad: UV                        :      0.000u      0.000s      0.000w      1 calls
| JKGrad: ABx                       :      0.133u      0.000s      0.082w      1 calls
| JKGrad: Amnx                      :      1.183u      0.017s      0.728w      1 calls
Grad: XC                            :      1.417u      0.017s      0.883w      1 calls
| Properties                        :      0.483u      0.000s      0.369w   2994 calls
| Functional                        :      0.400u      0.000s      0.187w   2994 calls
| V_xc gradient                     :      0.517u      0.017s      0.322w   2994 calls

**************************************************************************************

Host: aaojha

Timers On : Fri May 14 09:04:22 2021
Timers Off: Fri May 14 09:04:31 2021

Wall Time:        9.54 seconds

                                                       Time (seconds)
Module                                       User      System        Wall        Calls
V: Grid                             :      1.333u      0.017s      0.808w      1 calls
DFH: sparsity prep                  :      0.017u      0.000s      0.013w      1 calls
DFH: initialize()                   :      0.650u      0.033s      0.410w      1 calls
DFH: AO Construction                :      0.283u      0.000s      0.163w      1 calls
DFH: AO-Met. Contraction            :      0.067u      0.017s      0.050w      1 calls
HF: Form core H                     :      0.000u      0.000s      0.002w      1 calls
HF: Form S/X                        :      0.000u      0.000s      0.000w      1 calls
HF: Guess                           :      0.283u      0.000s      0.163w      1 calls
SAD Guess                           :      0.267u      0.000s      0.155w      1 calls
HF: Form G                          :      8.050u      0.083s      4.878w     13 calls
RV: Form V                          :      8.017u      0.083s      4.855w     13 calls
Properties                          :      2.317u      0.033s      1.484w  41874 calls
Functional                          :      4.433u      0.017s      2.581w  41874 calls
V_xc                                :      2.100u      0.033s      1.275w  38883 calls
JK: D                               :      0.000u      0.000s      0.000w     13 calls
JK: USO2AO                          :      0.000u      0.000s      0.000w     13 calls
JK: JK                              :      0.033u      0.000s      0.022w     13 calls
DFH: compute_JK()                   :      0.033u      0.000s      0.022w     13 calls
DFH: Grabbing AOs                   :      0.000u      0.000s      0.000w     13 calls
DFH: compute_J                      :      0.033u      0.000s      0.022w     13 calls
JK: AO2USO                          :      0.000u      0.000s      0.000w     13 calls
HF: Form F                          :      0.000u      0.000s      0.000w     13 calls
HF: Form D                          :      0.000u      0.000s      0.000w     13 calls
HF: DIIS                            :      0.000u      0.000s      0.015w     12 calls
DIISManager::add_entry              :      0.000u      0.000s      0.001w     12 calls
DIISManager::extrapolate            :      0.000u      0.000s      0.011w     12 calls
bMatrix setup                       :      0.000u      0.000s      0.010w     12 calls
bMatrix pseudoinverse               :      0.000u      0.000s      0.000w     12 calls
New vector                          :      0.000u      0.000s      0.000w     12 calls
HF: Form C                          :      0.017u      0.000s      0.003w     12 calls
Grad: V T Perturb                   :      0.083u      0.000s      0.053w      1 calls
Grad: S                             :      0.000u      0.000s      0.001w      1 calls
Grad: JK                            :      1.917u      0.000s      1.158w      1 calls
JKGrad: Amn                         :      0.300u      0.000s      0.177w      1 calls
JKGrad: Awmn                        :      0.000u      0.000s      0.000w      1 calls
JKGrad: AB                          :      0.267u      0.000s      0.169w      1 calls
JKGrad: UV                          :      0.000u      0.000s      0.000w      1 calls
JKGrad: ABx                         :      0.133u      0.000s      0.077w      1 calls
JKGrad: Amnx                        :      1.183u      0.000s      0.711w      1 calls
Grad: XC                            :      1.400u      0.017s      0.854w      1 calls
V_xc gradient                       :      0.433u      0.017s      0.307w   2991 calls

--------------------------------------------------------------------------------------
V: Grid                             :      1.333u      0.017s      0.808w      1 calls
DFH: sparsity prep                  :      0.017u      0.000s      0.013w      1 calls
DFH: initialize()                   :      0.650u      0.033s      0.410w      1 calls
| DFH: AO Construction              :      0.283u      0.000s      0.163w      1 calls
| DFH: AO-Met. Contraction          :      0.067u      0.017s      0.050w      1 calls
HF: Form core H                     :      0.000u      0.000s      0.002w      1 calls
HF: Form S/X                        :      0.000u      0.000s      0.000w      1 calls
HF: Guess                           :      0.283u      0.000s      0.163w      1 calls
| SAD Guess                         :      0.267u      0.000s      0.155w      1 calls
HF: Form G                          :      8.050u      0.083s      4.878w     13 calls
| RV: Form V                        :      8.017u      0.083s      4.855w     13 calls
| | Properties                      :      1.750u      0.033s      1.126w  38883 calls
| | Functional                      :      4.050u      0.017s      2.397w  38883 calls
| | V_xc                            :      2.100u      0.033s      1.275w  38883 calls
| JK: D                             :      0.000u      0.000s      0.000w     13 calls
| JK: USO2AO                        :      0.000u      0.000s      0.000w     13 calls
| JK: JK                            :      0.033u      0.000s      0.022w     13 calls
| | DFH: compute_JK()               :      0.033u      0.000s      0.022w     13 calls
| | | DFH: Grabbing AOs             :      0.000u      0.000s      0.000w     13 calls
| | | DFH: compute_J                :      0.033u      0.000s      0.022w     13 calls
| JK: AO2USO                        :      0.000u      0.000s      0.000w     13 calls
HF: Form F                          :      0.000u      0.000s      0.000w     13 calls
HF: Form D                          :      0.000u      0.000s      0.000w     13 calls
HF: DIIS                            :      0.000u      0.000s      0.015w     12 calls
| DIISManager::add_entry            :      0.000u      0.000s      0.001w     12 calls
| DIISManager::extrapolate          :      0.000u      0.000s      0.011w     12 calls
| | bMatrix setup                   :      0.000u      0.000s      0.010w     12 calls
| | bMatrix pseudoinverse           :      0.000u      0.000s      0.000w     12 calls
| | New vector                      :      0.000u      0.000s      0.000w     12 calls
HF: Form C                          :      0.017u      0.000s      0.003w     12 calls
Grad: V T Perturb                   :      0.083u      0.000s      0.053w      1 calls
Grad: S                             :      0.000u      0.000s      0.001w      1 calls
Grad: JK                            :      1.917u      0.000s      1.158w      1 calls
| JKGrad: Amn                       :      0.300u      0.000s      0.177w      1 calls
| JKGrad: Awmn                      :      0.000u      0.000s      0.000w      1 calls
| JKGrad: AB                        :      0.267u      0.000s      0.169w      1 calls
| JKGrad: UV                        :      0.000u      0.000s      0.000w      1 calls
| JKGrad: ABx                       :      0.133u      0.000s      0.077w      1 calls
| JKGrad: Amnx                      :      1.183u      0.000s      0.711w      1 calls
Grad: XC                            :      1.400u      0.017s      0.854w      1 calls
| Properties                        :      0.567u      0.000s      0.358w   2991 calls
| Functional                        :      0.383u      0.000s      0.184w   2991 calls
| V_xc gradient                     :      0.433u      0.017s      0.307w   2991 calls

**************************************************************************************

Host: aaojha

Timers On : Fri May 14 09:04:32 2021
Timers Off: Fri May 14 09:04:42 2021

Wall Time:        9.97 seconds

                                                       Time (seconds)
Module                                       User      System        Wall        Calls
V: Grid                             :      1.217u      0.033s      0.757w      1 calls
DFH: sparsity prep                  :      0.033u      0.000s      0.014w      1 calls
DFH: initialize()                   :      0.650u      0.017s      0.409w      1 calls
DFH: AO Construction                :      0.267u      0.000s      0.164w      1 calls
DFH: AO-Met. Contraction            :      0.083u      0.000s      0.048w      1 calls
HF: Form core H                     :      0.000u      0.000s      0.010w      1 calls
HF: Form S/X                        :      0.000u      0.000s      0.000w      1 calls
HF: Guess                           :      0.283u      0.000s      0.162w      1 calls
SAD Guess                           :      0.267u      0.000s      0.155w      1 calls
HF: Form G                          :      8.683u      0.100s      5.291w     14 calls
RV: Form V                          :      8.633u      0.100s      5.265w     14 calls
Properties                          :      2.650u      0.067s      1.608w  44790 calls
Functional                          :      4.567u      0.050s      2.755w  44790 calls
V_xc                                :      2.200u      0.017s      1.395w  41804 calls
JK: D                               :      0.000u      0.000s      0.000w     14 calls
JK: USO2AO                          :      0.000u      0.000s      0.000w     14 calls
JK: JK                              :      0.050u      0.000s      0.025w     14 calls
DFH: compute_JK()                   :      0.050u      0.000s      0.025w     14 calls
DFH: Grabbing AOs                   :      0.000u      0.000s      0.000w     14 calls
DFH: compute_J                      :      0.050u      0.000s      0.025w     14 calls
JK: AO2USO                          :      0.000u      0.000s      0.000w     14 calls
HF: Form F                          :      0.000u      0.000s      0.000w     14 calls
HF: Form D                          :      0.000u      0.000s      0.000w     14 calls
HF: DIIS                            :      0.017u      0.017s      0.006w     13 calls
DIISManager::add_entry              :      0.000u      0.000s      0.001w     13 calls
DIISManager::extrapolate            :      0.000u      0.000s      0.002w     13 calls
bMatrix setup                       :      0.000u      0.000s      0.001w     13 calls
bMatrix pseudoinverse               :      0.000u      0.000s      0.000w     13 calls
New vector                          :      0.000u      0.000s      0.001w     13 calls
HF: Form C                          :      0.000u      0.000s      0.003w     13 calls
Grad: V T Perturb                   :      0.100u      0.000s      0.058w      1 calls
Grad: S                             :      0.000u      0.000s      0.001w      1 calls
Grad: JK                            :      1.950u      0.000s      1.175w      1 calls
JKGrad: Amn                         :      0.300u      0.000s      0.182w      1 calls
JKGrad: Awmn                        :      0.000u      0.000s      0.000w      1 calls
JKGrad: AB                          :      0.283u      0.000s      0.173w      1 calls
JKGrad: UV                          :      0.000u      0.000s      0.000w      1 calls
JKGrad: ABx                         :      0.133u      0.000s      0.077w      1 calls
JKGrad: Amnx                        :      1.200u      0.000s      0.718w      1 calls
Grad: XC                            :      1.450u      0.033s      0.879w      1 calls
V_xc gradient                       :      0.517u      0.000s      0.318w   2986 calls

--------------------------------------------------------------------------------------
V: Grid                             :      1.217u      0.033s      0.757w      1 calls
DFH: sparsity prep                  :      0.033u      0.000s      0.014w      1 calls
DFH: initialize()                   :      0.650u      0.017s      0.409w      1 calls
| DFH: AO Construction              :      0.267u      0.000s      0.164w      1 calls
| DFH: AO-Met. Contraction          :      0.083u      0.000s      0.048w      1 calls
HF: Form core H                     :      0.000u      0.000s      0.010w      1 calls
HF: Form S/X                        :      0.000u      0.000s      0.000w      1 calls
HF: Guess                           :      0.283u      0.000s      0.162w      1 calls
| SAD Guess                         :      0.267u      0.000s      0.155w      1 calls
HF: Form G                          :      8.683u      0.100s      5.291w     14 calls
| RV: Form V                        :      8.633u      0.100s      5.265w     14 calls
| | Properties                      :      1.967u      0.033s      1.239w  41804 calls
| | Functional                      :      4.317u      0.050s      2.568w  41804 calls
| | V_xc                            :      2.200u      0.017s      1.395w  41804 calls
| JK: D                             :      0.000u      0.000s      0.000w     14 calls
| JK: USO2AO                        :      0.000u      0.000s      0.000w     14 calls
| JK: JK                            :      0.050u      0.000s      0.025w     14 calls
| | DFH: compute_JK()               :      0.050u      0.000s      0.025w     14 calls
| | | DFH: Grabbing AOs             :      0.000u      0.000s      0.000w     14 calls
| | | DFH: compute_J                :      0.050u      0.000s      0.025w     14 calls
| JK: AO2USO                        :      0.000u      0.000s      0.000w     14 calls
HF: Form F                          :      0.000u      0.000s      0.000w     14 calls
HF: Form D                          :      0.000u      0.000s      0.000w     14 calls
HF: DIIS                            :      0.017u      0.017s      0.006w     13 calls
| DIISManager::add_entry            :      0.000u      0.000s      0.001w     13 calls
| DIISManager::extrapolate          :      0.000u      0.000s      0.002w     13 calls
| | bMatrix setup                   :      0.000u      0.000s      0.001w     13 calls
| | bMatrix pseudoinverse           :      0.000u      0.000s      0.000w     13 calls
| | New vector                      :      0.000u      0.000s      0.001w     13 calls
HF: Form C                          :      0.000u      0.000s      0.003w     13 calls
Grad: V T Perturb                   :      0.100u      0.000s      0.058w      1 calls
Grad: S                             :      0.000u      0.000s      0.001w      1 calls
Grad: JK                            :      1.950u      0.000s      1.175w      1 calls
| JKGrad: Amn                       :      0.300u      0.000s      0.182w      1 calls
| JKGrad: Awmn                      :      0.000u      0.000s      0.000w      1 calls
| JKGrad: AB                        :      0.283u      0.000s      0.173w      1 calls
| JKGrad: UV                        :      0.000u      0.000s      0.000w      1 calls
| JKGrad: ABx                       :      0.133u      0.000s      0.077w      1 calls
| JKGrad: Amnx                      :      1.200u      0.000s      0.718w      1 calls
Grad: XC                            :      1.450u      0.033s      0.879w      1 calls
| Properties                        :      0.683u      0.033s      0.368w   2986 calls
| Functional                        :      0.250u      0.000s      0.187w   2986 calls
| V_xc gradient                     :      0.517u      0.000s      0.318w   2986 calls

**************************************************************************************
