18   
Iteration 0 Energy -376.53604917
C        0.1539388000   -0.0358503000   -0.0325877000
C       -0.5637591000   -1.1299351000    0.5465454000
C       -1.9836586000   -1.0954340000    0.5603429000
C       -2.6789283000    0.0177260000    0.0063250000
C       -1.9568314000    1.1107117000   -0.5542379000
C       -0.5367287000    1.1006934000   -0.5615980000
C        1.6791594000   -0.0287402000    0.0072718000
N        2.3968926000   -0.8492712000   -0.8356885000
N        2.3389461000    0.8601360000    0.8277325000
H       -0.0203152000   -1.9904196000    0.9827084000
H       -2.5466673000   -1.9371879000    1.0084489000
H       -3.7867205000    0.0362368000    0.0161562000
H       -2.4995279000    1.9762280000   -0.9817470000
H        0.0276002000    1.9498518000   -0.9933216000
H        3.4499464000   -0.9101040000   -0.8221930000
H        1.8778869000   -1.5097813000   -1.4702575000
H        3.3895188000    0.9481548000    0.8595540000
H        1.7772189000    1.4759306000    1.4705707000
18   
Iteration 1 Energy -376.53507050
C        0.1543587931   -0.0541139636   -0.0436799552
C       -0.5692288682   -1.1238139138    0.5726421318
C       -1.9888090567   -1.0802032055    0.5898727852
C       -2.6785108746    0.0226053976    0.0089537847
C       -1.9508567591    1.0974892714   -0.5786972807
C       -0.5309080909    1.0777287680   -0.5896937067
C        1.6789763435   -0.0447181033    0.0132143387
N        2.4064083003   -0.8106850310   -0.8717882742
N        2.3272305278    0.8253584589    0.8624398351
H       -0.0300471951   -1.9741685099    1.0332871015
H       -2.5556097963   -1.9055662194    1.0629980350
H       -3.7861109940    0.0488514481    0.0217994531
H       -2.4889632964    1.9573349737   -1.0231137560
H        0.0375565881    1.9149907910   -1.0388954948
H        3.4601427586   -0.8599934397   -0.8669191561
H        1.8932578026   -1.4431823516   -1.5387687494
H        3.3766233913    0.9261448051    0.8953474904
H        1.7582217781    1.4124264210    1.5254466974
18   
Iteration 2 Energy -376.53457692
C        0.1521734343   -0.0614518557   -0.0496184187
C       -0.5712063473   -1.1154982814    0.5931384942
C       -1.9906613638   -1.0672492133    0.6126324763
C       -2.6784436958    0.0260261800    0.0119918867
C       -1.9492134784    1.0870016087   -0.5984162462
C       -0.5293460995    1.0634746972   -0.6140600970
C        1.6777595925   -0.0501549088    0.0098700916
N        2.4121451896   -0.7799465369   -0.8995961826
N        2.3202491455    0.7947808271    0.8881597828
H       -0.0328481520   -1.9580572737    1.0688456074
H       -2.5586988793   -1.8812275149    1.1036282757
H       -3.7858845725    0.0561611975    0.0275831360
H       -2.4861645064    1.9402105507   -1.0567807200
H        0.0405406627    1.8904003450   -1.0803198380
H        3.4663409095   -0.8216795258   -0.8967423199
H        1.9038601459   -1.3953399555   -1.5861280580
H        3.3692920396    0.8979582704    0.9277038599
H        1.7472382100    1.3557059314    1.5702260692
18   
Iteration 3 Energy -376.53403314
C        0.1531120169   -0.0685741401   -0.0538458813
C       -0.5744162968   -1.0952254418    0.6268479945
C       -1.9940714114   -1.0441183285    0.6478038830
C       -2.6825055193    0.0295527281    0.0143693812
C       -1.9520378102    1.0672009960   -0.6325777437
C       -0.5320350109    1.0365638322   -0.6517074328
C        1.6810329413   -0.0529069987    0.0052385209
N        2.4181612784   -0.7252515987   -0.9449299060
N        2.3212736759    0.7431096500    0.9296474425
H       -0.0379663620   -1.9241977719    1.1277496248
H       -2.5618308644   -1.8408079188    1.1666748814
H       -3.7897589892    0.0629940003    0.0327655544
H       -2.4870505999    1.9077497866   -1.1159733494
H        0.0375289688    1.8467907004   -1.1465835962
H        3.4729757433   -0.7525169071   -0.9395375408
H        1.9170809279   -1.3124963139   -1.6611346002
H        3.3702313031    0.8436669384    0.9814018608
H        1.7456064186    1.2603489443    1.6434576778
18   
Iteration 4 Energy -376.53433670
C        0.1450583769   -0.0471198073   -0.0396090679
C       -0.5644319320   -1.0804191611    0.6490883627
C       -1.9842871679   -1.0389572468    0.6612339108
C       -2.6739405761    0.0237091076    0.0104388749
C       -1.9514345558    1.0573793137   -0.6522354309
C       -0.5313644404    1.0432592254   -0.6724057537
C        1.6745014542   -0.0331539509    0.0015056987
N        2.4011555161   -0.7018129550   -0.9591087167
N        2.3247372220    0.7199029595    0.9540940034
H       -0.0202679833   -1.9009150384    1.1558079279
H       -2.5498942076   -1.8343197507    1.1844255536
H       -3.7814229490    0.0493013803    0.0236005484
H       -2.4940333817    1.8838267554   -1.1510814320
H        0.0359681686    1.8454121802   -1.1831058666
H        3.4554755689   -0.7457948517   -0.9731385240
H        1.8846295773   -1.2740594184   -1.6765054254
H        3.3757030581    0.7930982224    1.0135595364
H        1.7569303318    1.2220728412    1.6849878639
18   
Iteration 5 Energy -376.53462061
C        0.1517817222   -0.0077883257   -0.0076011424
C       -0.5563399042   -1.0379043980    0.6830908996
C       -1.9777725119   -1.0209518640    0.6777372605
C       -2.6838136726    0.0124268000   -0.0022794489
C       -1.9708176714    1.0368937128   -0.6884462694
C       -0.5494370057    1.0324314255   -0.6925985861
C        1.6855950616    0.0027093658   -0.0002795552
N        2.3804239496   -0.6618893506   -0.9856698518
N        2.3615616787    0.6737773375    0.9938984220
H       -0.0073806209   -1.8438294955    1.2070653859
H       -2.5339435268   -1.8176145226    1.2090536099
H       -3.7915987816    0.0183487478    0.0002885252
H       -2.5180946792    1.8406066494   -1.2185835023
H        0.0085872721    1.8242518024   -1.2282039936
H        3.4336395972   -0.7224595553   -1.0185456734
H        1.8409741572   -1.2023568605   -1.7110146245
H        3.4143084438    0.6970939257    1.0648738222
H        1.8103315100    1.1560569061    1.7506093232
18   
Iteration 6 Energy -376.53469044
C        0.1500391324   -0.0027121476   -0.0025603665
C       -0.5592636923   -1.0354134150    0.6850361615
C       -1.9803428048   -1.0249482461    0.6793650266
C       -2.6825943148    0.0079526103   -0.0043989592
C       -1.9660178701    1.0324136923   -0.6867876866
C       -0.5450016437    1.0387305199   -0.6924370388
C        1.6823699010   -0.0043074873    0.0037689263
N        2.3746541947   -0.6670554055   -0.9841789624
N        2.3642797462    0.6674104344    0.9929590036
H       -0.0096025024   -1.8379914714    1.2135413508
H       -2.5359966623   -1.8227082338    1.2096703638
H       -3.7904138431    0.0138688601   -0.0063546007
H       -2.5148818211    1.8339845515   -1.2182653957
H        0.0121269604    1.8339500210   -1.2243626352
H        3.4284670550   -0.7177738101   -1.0096444595
H        1.8392033631   -1.1925413807   -1.7232909098
H        3.4170881843    0.6918954311    1.0610655560
H        1.8158918486    1.1647952698    1.7417778245
18   
Iteration 7 Energy -376.53469072
C        0.1482405827   -0.0054226705    0.0052451628
C       -0.5560339106   -1.0431704222    0.6915956796
C       -1.9765268670   -1.0243506496    0.6761697879
C       -2.6780866375    0.0075103259   -0.0102728451
C       -1.9659929045    1.0363757082   -0.6900272107
C       -0.5454121681    1.0369235862   -0.6859927153
C        1.6788402242   -0.0120216352    0.0110829875
N        2.3711414584   -0.6721154124   -0.9788440374
N        2.3640870399    0.6657464800    0.9937810012
H       -0.0086484707   -1.8437157654    1.2259319360
H       -2.5359266015   -1.8210884241    1.2039092398
H       -3.7858991607    0.0103675783   -0.0148757197
H       -2.5131325715    1.8381791794   -1.2230614736
H        0.0151818216    1.8341838964   -1.2112585708
H        3.4245815854   -0.7171094711   -1.0196317807
H        1.8315582489   -1.1828821290   -1.7249152152
H        3.4172743633    0.6974455609    1.0505759175
H        1.8192840916    1.1746335356    1.7373716897
18   
Iteration 8 Energy -376.53472753
C        0.1509366394   -0.0005909336    0.0037300628
C       -0.5574864998   -1.0351253186    0.6903964369
C       -1.9783967865   -1.0241787335    0.6785785309
C       -2.6812220700    0.0051769308   -0.0102717779
C       -1.9662165654    1.0313382828   -0.6915613164
C       -0.5453311014    1.0372371297   -0.6903942668
C        1.6822158359   -0.0057284850    0.0107761568
N        2.3713027295   -0.6690617359   -0.9795449871
N        2.3681367565    0.6629129806    0.9996911511
H       -0.0085272391   -1.8337916625    1.2256057590
H       -2.5349513583   -1.8215409421    1.2084753836
H       -3.7890397284    0.0078285510   -0.0159481570
H       -2.5142852138    1.8310796707   -1.2266759679
H        0.0126013796    1.8341188425   -1.2189831673
H        3.4242115248   -0.7189468591   -1.0280546783
H        1.8266678845   -1.1781428599   -1.7231028054
H        3.4214797160    0.6907784550    1.0562383803
H        1.8247311350    1.1661917675    1.7481638507
18   
Iteration 9 Energy -376.53473053
C        0.1504554430    0.0001788626    0.0027092227
C       -0.5563432628   -1.0335657596    0.6919366905
C       -1.9772850014   -1.0222717930    0.6806403502
C       -2.6808539630    0.0060377338   -0.0092316928
C       -1.9671133434    1.0311381253   -0.6934834711
C       -0.5461343421    1.0362542544   -0.6933829225
C        1.6821283514   -0.0034231864    0.0079227569
N        2.3697332060   -0.6681008261   -0.9823815414
N        2.3688548843    0.6581678669    1.0010237482
H       -0.0065349768   -1.8316788671    1.2270721968
H       -2.5336279669   -1.8188416484    1.2119424473
H       -3.7886675457    0.0084756414   -0.0138666248
H       -2.5156054390    1.8299134253   -1.2296376602
H        0.0116336393    1.8314908666   -1.2245708461
H        3.4234045292   -0.7102436189   -1.0220558365
H        1.8296212409   -1.1777326577   -1.7290564206
H        3.4220948650    0.6862592036    1.0596749666
H        1.8249611567    1.1571462900    1.7520391959
18   
Iteration 10 Energy -376.53473679
C        0.1505059285   -0.0007643471    0.0028794164
C       -0.5569506936   -1.0342732184    0.6920292617
C       -1.9778187434   -1.0223034454    0.6805949055
C       -2.6810061333    0.0063079996   -0.0091489998
C       -1.9667558142    1.0313551552   -0.6928367285
C       -0.5458020891    1.0360914195   -0.6924988944
C        1.6820178996   -0.0056629262    0.0082223020
N        2.3726192613   -0.6696595392   -0.9804773267
N        2.3679290810    0.6575108360    1.0006427213
H       -0.0075979554   -1.8324613782    1.2275522376
H       -2.5345235173   -1.8187025292    1.2117770914
H       -3.7888247644    0.0091554280   -0.0138527468
H       -2.5149127507    1.8304997707   -1.2287679490
H        0.0121890797    1.8316647572   -1.2229699509
H        3.4261586726   -0.7111463903   -1.0239367918
H        1.8323253410   -1.1756853082   -1.7293659691
H        3.4211574024    0.6875860833    1.0582841349
H        1.8235975431    1.1593743606    1.7493950479
18   
Iteration 11 Energy -376.53473769
C        0.1511714247   -0.0010613534    0.0034014297
C       -0.5563555897   -1.0346896194    0.6924152291
C       -1.9771736300   -1.0227905486    0.6803185062
C       -2.6799501591    0.0057351957   -0.0099767331
C       -1.9657315359    1.0309233540   -0.6934389425
C       -0.5448000786    1.0358069486   -0.6923874800
C        1.6824865423   -0.0055788890    0.0101579335
N        2.3710497572   -0.6707815019   -0.9791985766
N        2.3687163388    0.6576756581    1.0024754600
H       -0.0071177719   -1.8326636956    1.2283926474
H       -2.5341290821   -1.8190990268    1.2113771882
H       -3.7877657436    0.0084265613   -0.0151871521
H       -2.5137964223    1.8299481721   -1.2296398556
H        0.0133579379    1.8314848945   -1.2225355466
H        3.4243503314   -0.7119169175   -1.0272899234
H        1.8285392471   -1.1728915505   -1.7290754924
H        3.4220465271    0.6882519519    1.0577090108
H        1.8253314091    1.1618375439    1.7503657048
