18   
Iteration 0 Energy -376.53604917
C        0.1539388000   -0.0358503000   -0.0325877000
C       -0.5637591000   -1.1299351000    0.5465454000
C       -1.9836586000   -1.0954340000    0.5603429000
C       -2.6789283000    0.0177260000    0.0063250000
C       -1.9568314000    1.1107117000   -0.5542379000
C       -0.5367287000    1.1006934000   -0.5615980000
C        1.6791594000   -0.0287402000    0.0072718000
N        2.3968926000   -0.8492712000   -0.8356885000
N        2.3389461000    0.8601360000    0.8277325000
H       -0.0203152000   -1.9904196000    0.9827084000
H       -2.5466673000   -1.9371879000    1.0084489000
H       -3.7867205000    0.0362368000    0.0161562000
H       -2.4995279000    1.9762280000   -0.9817470000
H        0.0276002000    1.9498518000   -0.9933216000
H        3.4499464000   -0.9101040000   -0.8221930000
H        1.8778869000   -1.5097813000   -1.4702575000
H        3.3895188000    0.9481548000    0.8595540000
H        1.7772189000    1.4759306000    1.4705707000
18   
Iteration 1 Energy -376.53692209
C        0.1525585528   -0.0192156441   -0.0212858087
C       -0.5584327239   -1.1365904846    0.5203528965
C       -1.9785135292   -1.1105295958    0.5306771761
C       -2.6780637534    0.0130966963    0.0037056289
C       -1.9617583490    1.1234812105   -0.5295858888
C       -0.5416359919    1.1228781175   -0.5333561839
C        1.6780997998   -0.0142427981    0.0013840128
N        2.3869607475   -0.8862194011   -0.7962679067
N        2.3479629586    0.8930030502    0.7930084086
H       -0.0105606128   -2.0065755270    0.9314194927
H       -2.5381611330   -1.9675555580    0.9533309249
H       -3.7859695931    0.0246244677    0.0103825620
H       -2.5090260970    1.9943973670   -0.9399554444
H        0.0191354020    1.9830738138   -0.9475324925
H        3.4390284642   -0.9620037059   -0.7813796643
H        1.8587354847   -1.5708400183   -1.3966944711
H        3.3995984986    0.9683464823    0.8222025689
H        1.7937732276    1.5373571241    1.4140394683
18   
Iteration 2 Energy -376.53754001
C        0.1547070522   -0.0150839777   -0.0156747955
C       -0.5574883283   -1.1449736874    0.4980322902
C       -1.9775852375   -1.1218046010    0.5064585601
C       -2.6789939533    0.0107645649    0.0011138709
C       -1.9633948830    1.1329728170   -0.5080563761
C       -0.5432786408    1.1337420088   -0.5075884330
C        1.6790541865   -0.0115098398    0.0043643538
N        2.3812107985   -0.9152352312   -0.7634346264
N        2.3537202012    0.9196187504    0.7638877697
H       -0.0094451156   -2.0222659382    0.8929809417
H       -2.5362708202   -1.9884891629    0.9103110650
H       -3.7869776461    0.0197385311    0.0054319369
H       -2.5110633866    2.0106774419   -0.9031753419
H        0.0163858216    2.0029587685   -0.9039856654
H        3.4327506610   -0.9954141990   -0.7469615321
H        1.8487520394   -1.6136316443   -1.3437336307
H        3.4054462994    0.9943397658    0.7848705304
H        1.8033636462    1.5889451520    1.3612575277
18   
Iteration 3 Energy -376.53850443
C        0.1539789330   -0.0098377459   -0.0107703541
C       -0.5542337082   -1.1601548218    0.4628432547
C       -1.9740340113   -1.1395200775    0.4704157383
C       -2.6754279567    0.0084545658   -0.0001758590
C       -1.9613488871    1.1481720002   -0.4724692770
C       -0.5415832452    1.1543101875   -0.4698354499
C        1.6758768660   -0.0093805314    0.0047676873
N        2.3733485614   -0.9582976759   -0.7114995370
N        2.3546742230    0.9586828097    0.7132103202
H       -0.0041674591   -2.0475374118    0.8317720000
H       -2.5324598542   -2.0192385232    0.8454360974
H       -3.7835014842    0.0154150440    0.0019922392
H       -2.5111701678    2.0356101754   -0.8419687668
H        0.0176264467    2.0358730780   -0.8389419157
H        3.4243698593   -1.0397736223   -0.6856870271
H        1.8397485579   -1.6818995259   -1.2586109268
H        3.4061140551    1.0361963478    0.7240569338
H        1.8068586886    1.6606265260    1.2740195481
18   
Iteration 4 Energy -376.53868048
C        0.1549570208   -0.0211623723   -0.0186457737
C       -0.5582814947   -1.1720835180    0.4485554066
C       -1.9775176116   -1.1458940605    0.4588943598
C       -2.6736487527    0.0106941495    0.0007560327
C       -1.9543972973    1.1540452910   -0.4556805836
C       -0.5350393927    1.1562299475   -0.4537774864
C        1.6731746139   -0.0229118012    0.0151747048
N        2.3786375147   -0.9735909694   -0.6915876317
N        2.3457213242    0.9727303645    0.6912790540
H       -0.0115261737   -2.0627767986    0.8146702461
H       -2.5396184584   -2.0260923765    0.8272704404
H       -3.7817696446    0.0227999259    0.0037763507
H       -2.5012982875    2.0485698969   -0.8121309272
H        0.0274657568    2.0420100023   -0.8078227618
H        3.4300791261   -1.0422209751   -0.6592436453
H        1.8542320999   -1.7027183366   -1.2397942815
H        3.3955788125    1.0663595268    0.6891137343
H        1.7930161177    1.6868614735    1.2310132594
18   
Iteration 5 Energy -376.53874219
C        0.1558011466   -0.0284427285   -0.0297894081
C       -0.5592639794   -1.1783990832    0.4387701654
C       -1.9781813947   -1.1465603076    0.4531587405
C       -2.6735668498    0.0141846649    0.0039906622
C       -1.9538387345    1.1595417933   -0.4469836061
C       -0.5347616830    1.1553289103   -0.4482168953
C        1.6723546761   -0.0273953046    0.0144638530
N        2.3888146838   -0.9791146597   -0.6810447228
N        2.3376365635    0.9809752257    0.6796335623
H       -0.0139602125   -2.0716123579    0.8011021867
H       -2.5420279053   -2.0262967399    0.8198996703
H       -3.7816707642    0.0288270967    0.0113997183
H       -2.4992242817    2.0584837210   -0.7946714629
H        0.0290461881    2.0420269668   -0.7978304585
H        3.4400904564   -1.0467471088   -0.6445632786
H        1.8696918945   -1.7159081930   -1.2236989899
H        3.3866918453    1.0819590267    0.6734452957
H        1.7808639854    1.6941917650    1.2162404192
18   
Iteration 6 Energy -376.53874402
C        0.1608620633   -0.0317056790   -0.0455535271
C       -0.5638563588   -1.1764082139    0.4238079290
C       -1.9827655821   -1.1497935088    0.4471262244
C       -2.6782180295    0.0146552634    0.0086412292
C       -1.9540770746    1.1596066834   -0.4368634631
C       -0.5350758587    1.1558138697   -0.4456552613
C        1.6759616523   -0.0264980134    0.0124089211
N        2.3969511091   -0.9843684871   -0.6710207479
N        2.3375008707    0.9911930067    0.6687844145
H       -0.0189529197   -2.0723486853    0.7796896349
H       -2.5446019414   -2.0312203386    0.8130837005
H       -3.7862780904    0.0329354405    0.0211968415
H       -2.4992323628    2.0625590162   -0.7743331967
H        0.0260231130    2.0444648047   -0.7946107015
H        3.4475050706   -1.0515622302   -0.6201159280
H        1.8832537971   -1.7306135756   -1.2058342115
H        3.3864422366    1.0923467176    0.6635755341
H        1.7795623425    1.7029154375    1.2059554676
18   
Iteration 7 Energy -376.53877425
C        0.1593397552   -0.0324471138   -0.0406882042
C       -0.5605544945   -1.1795319201    0.4293142994
C       -1.9793198441   -1.1463099372    0.4487371062
C       -2.6766033236    0.0163347268    0.0080985937
C       -1.9567845838    1.1621128286   -0.4413811637
C       -0.5378161970    1.1524451712   -0.4474647558
C        1.6750301477   -0.0252502012    0.0118815467
N        2.3959097762   -0.9801036959   -0.6754174581
N        2.3373385800    0.9891993203    0.6719726618
H       -0.0164753027   -2.0759040099    0.7856300380
H       -2.5425245709   -2.0265895614    0.8152014033
H       -3.7846674724    0.0323106263    0.0208335184
H       -2.5014776426    2.0642673563   -0.7818807354
H        0.0247753311    2.0387343278   -0.7999088594
H        3.4465198318   -1.0489446616   -0.6264164090
H        1.8812103426   -1.7248668980   -1.2114372878
H        3.3866286780    1.0871891692    0.6708201893
H        1.7798796870    1.6993618172    1.2117453025
18   
Iteration 8 Energy -376.53877103
C        0.1579483467   -0.0295353029   -0.0372586853
C       -0.5612387430   -1.1769987971    0.4325374765
C       -1.9800710543   -1.1469481382    0.4513726085
C       -2.6763031503    0.0151282757    0.0079379283
C       -1.9558453355    1.1598721992   -0.4432399615
C       -0.5368492504    1.1547615107   -0.4492965906
C        1.6739961140   -0.0247993017    0.0113053250
N        2.3971968444   -0.9766600604   -0.6777220458
N        2.3367615521    0.9872481106    0.6739085743
H       -0.0163088022   -2.0724546670    0.7898064232
H       -2.5426272551   -2.0274678738    0.8183036681
H       -3.7843706862    0.0310731053    0.0192092254
H       -2.5015325390    2.0603873662   -0.7863524394
H        0.0253606807    2.0406417175   -0.8035459278
H        3.4477041989   -1.0517791150   -0.6341876883
H        1.8797363774   -1.7186207106   -1.2148551155
H        3.3864286105    1.0813523307    0.6760740259
H        1.7799923793    1.6970746576    1.2149287455
18   
Iteration 9 Energy -376.53878054
C        0.1590360877   -0.0304768679   -0.0388872672
C       -0.5608206616   -1.1776616269    0.4306266469
C       -1.9796776034   -1.1469581162    0.4497236404
C       -2.6766379215    0.0152929834    0.0077508088
C       -1.9562620833    1.1605743128   -0.4422211675
C       -0.5372799495    1.1539487988   -0.4481276527
C        1.6747697375   -0.0243701540    0.0118364362
N        2.3958440371   -0.9781576200   -0.6769070945
N        2.3376360955    0.9894614436    0.6721355188
H       -0.0161783150   -2.0734624552    0.7874638483
H       -2.5422072149   -2.0276769600    0.8161959109
H       -3.7847107039    0.0311198550    0.0194906551
H       -2.5015864772    2.0618264432   -0.7840324642
H        0.0248744713    2.0402533061   -0.8013089689
H        3.4463364782   -1.0503039689   -0.6293718727
H        1.8796756516   -1.7223696178   -1.2122371073
H        3.3872436005    1.0839506883    0.6736875198
H        1.7811224150    1.6988757144    1.2139306715
18   
Iteration 10 Energy -376.53878120
C        0.1591258893   -0.0304432766   -0.0390403543
C       -0.5607466169   -1.1776653328    0.4303803302
C       -1.9796061406   -1.1470392440    0.4495761242
C       -2.6765287466    0.0152898482    0.0077752941
C       -1.9563891198    1.1607667382   -0.4420937730
C       -0.5374193463    1.1539756139   -0.4480125555
C        1.6748533182   -0.0241834622    0.0116711405
N        2.3961519774   -0.9777937436   -0.6770827429
N        2.3376597027    0.9903495218    0.6709798206
H       -0.0160988963   -2.0734948007    0.7871338623
H       -2.5421045703   -2.0278105685    0.8159746595
H       -3.7846000550    0.0310520394    0.0195854679
H       -2.5017639664    2.0620654248   -0.7837115876
H        0.0247328838    2.0403163742   -0.8010925770
H        3.4465988986   -1.0499886256   -0.6284093588
H        1.8802604462   -1.7229429898   -1.2114002526
H        3.3872824804    1.0846666149    0.6741781218
H        1.7808999655    1.6987248437    1.2138620382
