
    -----------------------------------------------------------------------
          Psi4: An Open-Source Ab Initio Electronic Structure Package
                               Psi4 1.3.2 release

                         Git: Rev {HEAD} ecbda83 


    R. M. Parrish, L. A. Burns, D. G. A. Smith, A. C. Simmonett,
    A. E. DePrince III, E. G. Hohenstein, U. Bozkaya, A. Yu. Sokolov,
    R. Di Remigio, R. M. Richard, J. F. Gonthier, A. M. James,
    H. R. McAlexander, A. Kumar, M. Saitow, X. Wang, B. P. Pritchard,
    P. Verma, H. F. Schaefer III, K. Patkowski, R. A. King, E. F. Valeev,
    F. A. Evangelista, J. M. Turney, T. D. Crawford, and C. D. Sherrill,
    J. Chem. Theory Comput. 13(7) pp 3185--3197 (2017).
    (doi: 10.1021/acs.jctc.7b00174)


                         Additional Contributions by
    P. Kraus, H. Kruse, M. H. Lechner, M. C. Schieber, R. A. Shaw,
    A. Alenaizan, R. Galvelis, Z. L. Glick, S. Lehtola, and J. P. Misiewicz

    -----------------------------------------------------------------------


    Psi4 started on: Friday, 14 May 2021 09:10AM

    Process ID: 30229
    Host:       aaojha
    PSIDATADIR: /home/aaojha/anaconda3/envs/torsiondrive/share/psi4
    Memory:     500.0 MiB
    Threads:    1
    
  ==> Input File <==

--------------------------------------------------------------------------
memory 50 GB
molecule {
1 1
C           0.1682324     0.0008695    -0.0157525
C          -0.5566223    -1.2376950    -0.1206308
C          -1.9734899    -1.2296633    -0.1185989
C          -2.6842519     0.0013421     0.0011789
C          -1.9725767     1.2318717     0.1188927
C          -0.5556699     1.2378152     0.1127745
C           1.6752605     0.0004089     0.0044300
N           2.3868258    -1.1645866     0.2321130
N           2.3901223     1.1588780    -0.2428093
H          -0.0244257    -2.2002499    -0.2473762
H          -2.5269745    -2.1840387    -0.2147173
H          -3.7929187     0.0013766     0.0052743
H          -2.5246350     2.1860698     0.2245051
H          -0.0216194     2.1990783     0.2419072
H           3.4386841    -1.1857699     0.2333149
H           1.8866566    -2.0351334     0.5386305
H           3.4414030     1.1862896    -0.2175011
H           1.8902463     2.0344130    -0.5348539
}
set {
basis STO-3G
}
gradient('BLYP')
--------------------------------------------------------------------------

  Memory set to  46.566 GiB by Python driver.
gradient() will perform analytic gradient computation.

*** tstart() called on aaojha
*** at Fri May 14 09:10:54 2021

   => Loading Basis Set <=

    Name: STO-3G
    Role: ORBITAL
    Keyword: BASIS
    atoms 1-7   entry C          line    61 file /home/aaojha/anaconda3/envs/torsiondrive/share/psi4/basis/sto-3g.gbs 
    atoms 8-9   entry N          line    71 file /home/aaojha/anaconda3/envs/torsiondrive/share/psi4/basis/sto-3g.gbs 
    atoms 10-18 entry H          line    19 file /home/aaojha/anaconda3/envs/torsiondrive/share/psi4/basis/sto-3g.gbs 


         ---------------------------------------------------------
                                   SCF
               by Justin Turney, Rob Parrish, Andy Simmonett
                          and Daniel G. A. Smith
                              RKS Reference
                        1 Threads,  47683 MiB Core
         ---------------------------------------------------------

  ==> Geometry <==

    Molecular point group: c1
    Full point group: C1

    Geometry (in Angstrom), charge = 1, multiplicity = 1:

       Center              X                  Y                   Z               Mass       
    ------------   -----------------  -----------------  -----------------  -----------------
         C            0.185718993939     0.001022274568    -0.013003475894    12.000000000000
         C           -0.539135706061    -1.237542225432    -0.117881775894    12.000000000000
         C           -1.956003306061    -1.229510525432    -0.115849875894    12.000000000000
         C           -2.666765306061     0.001494874568     0.003927924106    12.000000000000
         C           -1.955090106061     1.232024474568     0.121641724106    12.000000000000
         C           -0.538183306061     1.237967974568     0.115523524106    12.000000000000
         C            1.692747093939     0.000561674568     0.007179024106    12.000000000000
         N            2.404312393939    -1.164433825432     0.234862024106    14.003074004430
         N            2.407608893939     1.159030774568    -0.240060275894    14.003074004430
         H           -0.006939106061    -2.200097125432    -0.244627175894     1.007825032230
         H           -2.509487906061    -2.183885925432    -0.211968275894     1.007825032230
         H           -3.775432106061     0.001529374568     0.008023324106     1.007825032230
         H           -2.507148406061     2.186222574568     0.227254124106     1.007825032230
         H           -0.004132806061     2.199231074568     0.244656224106     1.007825032230
         H            3.456170693939    -1.185617125432     0.236063924106     1.007825032230
         H            1.904143193939    -2.034980625432     0.541379524106     1.007825032230
         H            3.458889593939     1.186442374568    -0.214752075894     1.007825032230
         H            1.907732893939     2.034565774568    -0.532104875894     1.007825032230

  Running in c1 symmetry.

  Rotational constants: A =      0.11656  B =      0.03809  C =      0.02902 [cm^-1]
  Rotational constants: A =   3494.34110  B =   1141.84300  C =    869.90436 [MHz]
  Nuclear repulsion =  406.329589843748749

  Charge       = 1
  Multiplicity = 1
  Electrons    = 64
  Nalpha       = 32
  Nbeta        = 32

  ==> Algorithm <==

  SCF Algorithm Type is DF.
  DIIS enabled.
  MOM disabled.
  Fractional occupation disabled.
  Guess Type is SAD.
  Energy threshold   = 1.00e-08
  Density threshold  = 1.00e-08
  Integral threshold = 0.00e+00

  ==> Primary Basis <==

  Basis Set: STO-3G
    Blend: STO-3G
    Number of shells: 36
    Number of basis function: 54
    Number of Cartesian functions: 54
    Spherical Harmonics?: true
    Max angular momentum: 1

  ==> DFT Potential <==

   => Composite Functional: BLYP <= 

    BLYP GGA Exchange-Correlation Functional

    P.J. Stephens et. al., J. Phys. Chem., 98, 11623-11627, 1994
    B. Miehlich et. al., Chem. Phys. Lett., 157(3), 200-206 1989


    Deriv               =              1
    GGA                 =           TRUE
    Meta                =          FALSE

    Exchange Hybrid     =          FALSE
    MP2 Hybrid          =          FALSE

   => Exchange Functionals <=

    1.0000     XC_GGA_X_B88

   => Correlation Functionals <=

    1.0000     XC_GGA_C_LYP

   => Molecular Quadrature <=

    Radial Scheme          =       TREUTLER
    Pruning Scheme         =           FLAT
    Nuclear Scheme         =       TREUTLER

    BS radius alpha        =              1
    Pruning alpha          =              1
    Radial Points          =             75
    Spherical Points       =            302
    Total Points           =         395104
    Total Blocks           =           2963
    Max Points             =            256
    Max Functions          =             51

   => Loading Basis Set <=

    Name: (STO-3G AUX)
    Role: JKFIT
    Keyword: DF_BASIS_SCF
    atoms 1-7   entry C          line   203 file /home/aaojha/anaconda3/envs/torsiondrive/share/psi4/basis/def2-svp-jkfit.gbs 
    atoms 8-9   entry N          line   263 file /home/aaojha/anaconda3/envs/torsiondrive/share/psi4/basis/def2-svp-jkfit.gbs 
    atoms 10-18 entry H          line    23 file /home/aaojha/anaconda3/envs/torsiondrive/share/psi4/basis/def2-svp-jkfit.gbs 

  ==> Pre-Iterations <==

   -------------------------------------------------------
    Irrep   Nso     Nmo     Nalpha   Nbeta   Ndocc  Nsocc
   -------------------------------------------------------
     A         54      54       0       0       0       0
   -------------------------------------------------------
    Total      54      54      32      32      32       0
   -------------------------------------------------------

  ==> Integral Setup <==

  DFHelper Memory: AOs need 0.024 GiB; user supplied 34.426 GiB. Using in-core AOs.

  ==> MemDFJK: Density-Fitted J/K Matrices <==

    J tasked:                   Yes
    K tasked:                    No
    wK tasked:                   No
    OpenMP threads:               1
    Memory [MiB]:             35251
    Algorithm:                 Core
    Schwarz Cutoff:           1E-12
    Mask sparsity (%):       1.9890
    Fitting Condition:        1E-10

   => Auxiliary Basis Set <=

  Basis Set: (STO-3G AUX)
    Blend: DEF2-SVP-JKFIT
    Number of shells: 279
    Number of basis function: 841
    Number of Cartesian functions: 989
    Spherical Harmonics?: true
    Max angular momentum: 4

  Cached 100.0% of DFT collocation blocks in 0.499 [GiB].

  Minimum eigenvalue in the overlap matrix is 1.8838863447E-01.
  Using Symmetric Orthogonalization.

  SCF Guess: Superposition of Atomic Densities via on-the-fly atomic UHF.

  ==> Iterations <==

                           Total Energy        Delta E     RMS |[F,P]|

   @DF-RKS iter SAD:  -373.14379637750199   -3.73144e+02   0.00000e+00 
   @DF-RKS iter   1:  -376.48705092875389   -3.34325e+00   5.06649e-03 DIIS
   @DF-RKS iter   2:  -376.34575924006913    1.41292e-01   9.84849e-03 DIIS
   @DF-RKS iter   3:  -376.53533741515866   -1.89578e-01   1.72745e-03 DIIS
   @DF-RKS iter   4:  -376.54059175618340   -5.25434e-03   6.87965e-04 DIIS
   @DF-RKS iter   5:  -376.54162579784690   -1.03404e-03   1.56167e-04 DIIS
   @DF-RKS iter   6:  -376.54167277521958   -4.69774e-05   4.70183e-05 DIIS
   @DF-RKS iter   7:  -376.54167635416547   -3.57895e-06   1.93691e-05 DIIS
   @DF-RKS iter   8:  -376.54167699885022   -6.44685e-07   7.89188e-06 DIIS
   @DF-RKS iter   9:  -376.54167713111133   -1.32261e-07   9.28594e-07 DIIS
   @DF-RKS iter  10:  -376.54167713194079   -8.29459e-10   6.01055e-07 DIIS
   @DF-RKS iter  11:  -376.54167713280469   -8.63906e-10   5.32192e-08 DIIS
   @DF-RKS iter  12:  -376.54167713280708   -2.38742e-12   4.44138e-08 DIIS
   @DF-RKS iter  13:  -376.54167713281140   -4.32010e-12   8.54450e-09 DIIS
  Energy and wave function converged.


  ==> Post-Iterations <==

    Orbital Energies [Eh]
    ---------------------

    Doubly Occupied:                                                      

       1A    -14.120460     2A    -14.120329     3A    -10.091551  
       4A     -9.954344     5A     -9.928101     6A     -9.927957  
       7A     -9.916225     8A     -9.913038     9A     -9.912850  
      10A     -1.041098    11A     -0.961498    12A     -0.882082  
      13A     -0.806052    14A     -0.782962    15A     -0.737788  
      16A     -0.677734    17A     -0.668265    18A     -0.634624  
      19A     -0.632586    20A     -0.592998    21A     -0.570776  
      22A     -0.538594    23A     -0.507226    24A     -0.493870  
      25A     -0.487770    26A     -0.483542    27A     -0.419632  
      28A     -0.417647    29A     -0.412102    30A     -0.361424  
      31A     -0.325395    32A     -0.320455  

    Virtual:                                                              

      33A     -0.189554    34A     -0.107126    35A     -0.087968  
      36A      0.010145    37A      0.028365    38A      0.044518  
      39A      0.062654    40A      0.104519    41A      0.124121  
      42A      0.154393    43A      0.184697    44A      0.190905  
      45A      0.215283    46A      0.228569    47A      0.259309  
      48A      0.273938    49A      0.345584    50A      0.351937  
      51A      0.357901    52A      0.372085    53A      0.491014  
      54A      0.532614  

    Final Occupation by Irrep:
              A 
    DOCC [    32 ]

  @DF-RKS Final Energy:  -376.54167713281140

   => Energetics <=

    Nuclear Repulsion Energy =            406.3295898437487494
    One-Electron Energy =               -1303.4540937560582279
    Two-Electron Energy =                 574.8754466189253662
    DFT Exchange-Correlation Energy =     -54.2926198394272461
    Empirical Dispersion Energy =           0.0000000000000000
    VV10 Nonlocal Energy =                  0.0000000000000000
    Total Energy =                       -376.5416771328113441

Computation Completed


Properties will be evaluated at   0.000000,   0.000000,   0.000000 [a0]

Properties computed using the SCF density matrix

  Nuclear Dipole Moment: [e a0]
     X:     1.7895      Y:     0.0032      Z:     0.0506

  Electronic Dipole Moment: [e a0]
     X:     0.6922      Y:     0.0037      Z:    -0.0127

  Dipole Moment: [e a0]
     X:     2.4817      Y:     0.0069      Z:     0.0379     Total:     2.4820

  Dipole Moment: [D]
     X:     6.3078      Y:     0.0176      Z:     0.0963     Total:     6.3086


*** tstop() called on aaojha at Fri May 14 09:11:02 2021
Module time:
	user time   =       7.35 seconds =       0.12 minutes
	system time =       0.24 seconds =       0.00 minutes
	total time  =          8 seconds =       0.13 minutes
Total time:
	user time   =       7.35 seconds =       0.12 minutes
	system time =       0.24 seconds =       0.00 minutes
	total time  =          8 seconds =       0.13 minutes

*** tstart() called on aaojha
*** at Fri May 14 09:11:02 2021


         ------------------------------------------------------------
                                   SCF GRAD                          
                          Rob Parrish, Justin Turney,                
                       Andy Simmonett, and Alex Sokolov              
         ------------------------------------------------------------

  ==> Geometry <==

    Molecular point group: c1
    Full point group: C1

    Geometry (in Angstrom), charge = 1, multiplicity = 1:

       Center              X                  Y                   Z               Mass       
    ------------   -----------------  -----------------  -----------------  -----------------
         C            0.185718993939     0.001022274568    -0.013003475894    12.000000000000
         C           -0.539135706061    -1.237542225432    -0.117881775894    12.000000000000
         C           -1.956003306061    -1.229510525432    -0.115849875894    12.000000000000
         C           -2.666765306061     0.001494874568     0.003927924106    12.000000000000
         C           -1.955090106061     1.232024474568     0.121641724106    12.000000000000
         C           -0.538183306061     1.237967974568     0.115523524106    12.000000000000
         C            1.692747093939     0.000561674568     0.007179024106    12.000000000000
         N            2.404312393939    -1.164433825432     0.234862024106    14.003074004430
         N            2.407608893939     1.159030774568    -0.240060275894    14.003074004430
         H           -0.006939106061    -2.200097125432    -0.244627175894     1.007825032230
         H           -2.509487906061    -2.183885925432    -0.211968275894     1.007825032230
         H           -3.775432106061     0.001529374568     0.008023324106     1.007825032230
         H           -2.507148406061     2.186222574568     0.227254124106     1.007825032230
         H           -0.004132806061     2.199231074568     0.244656224106     1.007825032230
         H            3.456170693939    -1.185617125432     0.236063924106     1.007825032230
         H            1.904143193939    -2.034980625432     0.541379524106     1.007825032230
         H            3.458889593939     1.186442374568    -0.214752075894     1.007825032230
         H            1.907732893939     2.034565774568    -0.532104875894     1.007825032230

  Nuclear repulsion =  406.329589843748749

  ==> Basis Set <==

  Basis Set: STO-3G
    Blend: STO-3G
    Number of shells: 36
    Number of basis function: 54
    Number of Cartesian functions: 54
    Spherical Harmonics?: true
    Max angular momentum: 1

  ==> DFJKGrad: Density-Fitted SCF Gradients <==

    Gradient:                    1
    J tasked:                  Yes
    K tasked:                   No
    wK tasked:                  No
    OpenMP threads:              1
    Integrals threads:           1
    Memory [MiB]:            35762
    Schwarz Cutoff:          0E+00
    Fitting Condition:       1E-10

   => Auxiliary Basis Set <=

  Basis Set: (STO-3G AUX)
    Blend: DEF2-SVP-JKFIT
    Number of shells: 279
    Number of basis function: 841
    Number of Cartesian functions: 989
    Spherical Harmonics?: true
    Max angular momentum: 4

  ==> DFT Potential <==

   => Composite Functional: BLYP <= 

    BLYP GGA Exchange-Correlation Functional

    P.J. Stephens et. al., J. Phys. Chem., 98, 11623-11627, 1994
    B. Miehlich et. al., Chem. Phys. Lett., 157(3), 200-206 1989


    Deriv               =              1
    GGA                 =           TRUE
    Meta                =          FALSE

    Exchange Hybrid     =          FALSE
    MP2 Hybrid          =          FALSE

   => Exchange Functionals <=

    1.0000     XC_GGA_X_B88

   => Correlation Functionals <=

    1.0000     XC_GGA_C_LYP

   => Molecular Quadrature <=

    Radial Scheme          =       TREUTLER
    Pruning Scheme         =           FLAT
    Nuclear Scheme         =       TREUTLER

    BS radius alpha        =              1
    Pruning alpha          =              1
    Radial Points          =             75
    Spherical Points       =            302
    Total Points           =         395104
    Total Blocks           =           2963
    Max Points             =            256
    Max Functions          =             51


  -Total Gradient:
     Atom            X                  Y                   Z
    ------   -----------------  -----------------  -----------------
       1       -0.000184129742     0.000134383854    -0.003411275256
       2        0.000132721755    -0.000403811373     0.001686943573
       3        0.000079115109     0.000165919291     0.000017097978
       4        0.000001806400    -0.000013498060    -0.000001531885
       5       -0.000021701265     0.000033672904     0.000006134623
       6        0.000064785161     0.000040417423     0.000015618008
       7       -0.000219614555     0.000366286557     0.003465828009
       8        0.000107896113    -0.000281939772    -0.001753077144
       9        0.000005066135    -0.000121468773    -0.000039442168
      10       -0.000005555343    -0.000024667881    -0.000017159191
      11        0.000022784621     0.000003036052    -0.000005639438
      12       -0.000000814251     0.000013777211     0.000002031322
      13        0.000003416048     0.000005038711     0.000002296320
      14        0.000017733641     0.000014142821     0.000005596109
      15        0.000008140859    -0.000028491396    -0.000004333052
      16       -0.000001269207     0.000013479981     0.000002174208
      17        0.000000717115     0.000073161971     0.000006654591
      18       -0.000020419333     0.000009062489     0.000021900284


*** tstop() called on aaojha at Fri May 14 09:11:04 2021
Module time:
	user time   =       2.08 seconds =       0.03 minutes
	system time =       0.01 seconds =       0.00 minutes
	total time  =          2 seconds =       0.03 minutes
Total time:
	user time   =       9.43 seconds =       0.16 minutes
	system time =       0.25 seconds =       0.00 minutes
	total time  =         10 seconds =       0.17 minutes

    Psi4 stopped on: Friday, 14 May 2021 09:11AM
    Psi4 wall time for execution: 0:00:09.73

*** Psi4 exiting successfully. Buy a developer a beer!
