
Host: aaojha

Timers On : Fri May 14 10:03:33 2021
Timers Off: Fri May 14 10:03:42 2021

Wall Time:        9.29 seconds

                                                       Time (seconds)
Module                                       User      System        Wall        Calls
V: Grid                             :      1.150u      0.050s      0.725w      1 calls
DFH: sparsity prep                  :      0.017u      0.000s      0.012w      1 calls
DFH: initialize()                   :      0.633u      0.017s      0.388w      1 calls
DFH: AO Construction                :      0.267u      0.000s      0.155w      1 calls
DFH: AO-Met. Contraction            :      0.083u      0.000s      0.045w      1 calls
HF: Form core H                     :      0.000u      0.000s      0.002w      1 calls
HF: Form S/X                        :      0.000u      0.000s      0.000w      1 calls
HF: Guess                           :      0.250u      0.000s      0.153w      1 calls
SAD Guess                           :      0.250u      0.000s      0.146w      1 calls
HF: Form G                          :      8.083u      0.100s      4.894w     14 calls
RV: Form V                          :      8.050u      0.100s      4.873w     14 calls
Properties                          :      2.117u      0.017s      1.476w  44400 calls
Functional                          :      4.183u      0.050s      2.576w  44400 calls
V_xc                                :      2.300u      0.050s      1.289w  41440 calls
JK: D                               :      0.000u      0.000s      0.000w     14 calls
JK: USO2AO                          :      0.000u      0.000s      0.000w     14 calls
JK: JK                              :      0.033u      0.000s      0.019w     14 calls
DFH: compute_JK()                   :      0.033u      0.000s      0.019w     14 calls
DFH: Grabbing AOs                   :      0.000u      0.000s      0.000w     14 calls
DFH: compute_J                      :      0.033u      0.000s      0.019w     14 calls
JK: AO2USO                          :      0.000u      0.000s      0.000w     14 calls
HF: Form F                          :      0.000u      0.000s      0.000w     14 calls
HF: Form D                          :      0.000u      0.000s      0.000w     14 calls
HF: DIIS                            :      0.000u      0.000s      0.006w     13 calls
DIISManager::add_entry              :      0.000u      0.000s      0.001w     13 calls
DIISManager::extrapolate            :      0.000u      0.000s      0.001w     13 calls
bMatrix setup                       :      0.000u      0.000s      0.001w     13 calls
bMatrix pseudoinverse               :      0.000u      0.000s      0.000w     13 calls
New vector                          :      0.000u      0.000s      0.000w     13 calls
HF: Form C                          :      0.000u      0.000s      0.003w     13 calls
Grad: V T Perturb                   :      0.083u      0.000s      0.051w      1 calls
Grad: S                             :      0.000u      0.000s      0.001w      1 calls
Grad: JK                            :      1.850u      0.000s      1.119w      1 calls
JKGrad: Amn                         :      0.283u      0.000s      0.173w      1 calls
JKGrad: Awmn                        :      0.000u      0.000s      0.000w      1 calls
JKGrad: AB                          :      0.283u      0.000s      0.165w      1 calls
JKGrad: UV                          :      0.000u      0.000s      0.000w      1 calls
JKGrad: ABx                         :      0.117u      0.000s      0.073w      1 calls
JKGrad: Amnx                        :      1.150u      0.000s      0.685w      1 calls
Grad: XC                            :      1.367u      0.033s      0.830w      1 calls
V_xc gradient                       :      0.667u      0.017s      0.299w   2960 calls

--------------------------------------------------------------------------------------
V: Grid                             :      1.150u      0.050s      0.725w      1 calls
DFH: sparsity prep                  :      0.017u      0.000s      0.012w      1 calls
DFH: initialize()                   :      0.633u      0.017s      0.388w      1 calls
| DFH: AO Construction              :      0.267u      0.000s      0.155w      1 calls
| DFH: AO-Met. Contraction          :      0.083u      0.000s      0.045w      1 calls
HF: Form core H                     :      0.000u      0.000s      0.002w      1 calls
HF: Form S/X                        :      0.000u      0.000s      0.000w      1 calls
HF: Guess                           :      0.250u      0.000s      0.153w      1 calls
| SAD Guess                         :      0.250u      0.000s      0.146w      1 calls
HF: Form G                          :      8.083u      0.100s      4.894w     14 calls
| RV: Form V                        :      8.050u      0.100s      4.873w     14 calls
| | Properties                      :      1.583u      0.000s      1.124w  41440 calls
| | Functional                      :      4.017u      0.050s      2.403w  41440 calls
| | V_xc                            :      2.300u      0.050s      1.289w  41440 calls
| JK: D                             :      0.000u      0.000s      0.000w     14 calls
| JK: USO2AO                        :      0.000u      0.000s      0.000w     14 calls
| JK: JK                            :      0.033u      0.000s      0.019w     14 calls
| | DFH: compute_JK()               :      0.033u      0.000s      0.019w     14 calls
| | | DFH: Grabbing AOs             :      0.000u      0.000s      0.000w     14 calls
| | | DFH: compute_J                :      0.033u      0.000s      0.019w     14 calls
| JK: AO2USO                        :      0.000u      0.000s      0.000w     14 calls
HF: Form F                          :      0.000u      0.000s      0.000w     14 calls
HF: Form D                          :      0.000u      0.000s      0.000w     14 calls
HF: DIIS                            :      0.000u      0.000s      0.006w     13 calls
| DIISManager::add_entry            :      0.000u      0.000s      0.001w     13 calls
| DIISManager::extrapolate          :      0.000u      0.000s      0.001w     13 calls
| | bMatrix setup                   :      0.000u      0.000s      0.001w     13 calls
| | bMatrix pseudoinverse           :      0.000u      0.000s      0.000w     13 calls
| | New vector                      :      0.000u      0.000s      0.000w     13 calls
HF: Form C                          :      0.000u      0.000s      0.003w     13 calls
Grad: V T Perturb                   :      0.083u      0.000s      0.051w      1 calls
Grad: S                             :      0.000u      0.000s      0.001w      1 calls
Grad: JK                            :      1.850u      0.000s      1.119w      1 calls
| JKGrad: Amn                       :      0.283u      0.000s      0.173w      1 calls
| JKGrad: Awmn                      :      0.000u      0.000s      0.000w      1 calls
| JKGrad: AB                        :      0.283u      0.000s      0.165w      1 calls
| JKGrad: UV                        :      0.000u      0.000s      0.000w      1 calls
| JKGrad: ABx                       :      0.117u      0.000s      0.073w      1 calls
| JKGrad: Amnx                      :      1.150u      0.000s      0.685w      1 calls
Grad: XC                            :      1.367u      0.033s      0.830w      1 calls
| Properties                        :      0.533u      0.017s      0.352w   2960 calls
| Functional                        :      0.167u      0.000s      0.173w   2960 calls
| V_xc gradient                     :      0.667u      0.017s      0.299w   2960 calls

**************************************************************************************

Host: aaojha

Timers On : Fri May 14 10:03:43 2021
Timers Off: Fri May 14 10:03:52 2021

Wall Time:        9.68 seconds

                                                       Time (seconds)
Module                                       User      System        Wall        Calls
V: Grid                             :      1.183u      0.000s      0.723w      1 calls
DFH: sparsity prep                  :      0.017u      0.000s      0.012w      1 calls
DFH: initialize()                   :      0.617u      0.017s      0.387w      1 calls
DFH: AO Construction                :      0.267u      0.000s      0.155w      1 calls
DFH: AO-Met. Contraction            :      0.050u      0.000s      0.045w      1 calls
HF: Form core H                     :      0.000u      0.000s      0.002w      1 calls
HF: Form S/X                        :      0.000u      0.000s      0.000w      1 calls
HF: Guess                           :      0.250u      0.000s      0.153w      1 calls
SAD Guess                           :      0.233u      0.000s      0.146w      1 calls
HF: Form G                          :      8.650u      0.133s      5.280w     15 calls
RV: Form V                          :      8.617u      0.133s      5.259w     15 calls
Properties                          :      2.183u      0.017s      1.562w  47440 calls
Functional                          :      4.700u      0.117s      2.758w  47440 calls
V_xc                                :      2.550u      0.000s      1.395w  44475 calls
JK: D                               :      0.000u      0.000s      0.000w     15 calls
JK: USO2AO                          :      0.000u      0.000s      0.000w     15 calls
JK: JK                              :      0.033u      0.000s      0.021w     15 calls
DFH: compute_JK()                   :      0.033u      0.000s      0.021w     15 calls
DFH: Grabbing AOs                   :      0.000u      0.000s      0.000w     15 calls
DFH: compute_J                      :      0.033u      0.000s      0.020w     15 calls
JK: AO2USO                          :      0.000u      0.000s      0.000w     15 calls
HF: Form F                          :      0.000u      0.000s      0.000w     15 calls
HF: Form D                          :      0.000u      0.000s      0.000w     15 calls
HF: DIIS                            :      0.033u      0.000s      0.016w     14 calls
DIISManager::add_entry              :      0.000u      0.000s      0.001w     14 calls
DIISManager::extrapolate            :      0.000u      0.000s      0.011w     14 calls
bMatrix setup                       :      0.000u      0.000s      0.010w     14 calls
bMatrix pseudoinverse               :      0.000u      0.000s      0.000w     14 calls
New vector                          :      0.000u      0.000s      0.000w     14 calls
HF: Form C                          :      0.000u      0.000s      0.003w     14 calls
Grad: V T Perturb                   :      0.083u      0.000s      0.051w      1 calls
Grad: S                             :      0.000u      0.000s      0.001w      1 calls
Grad: JK                            :      1.867u      0.000s      1.123w      1 calls
JKGrad: Amn                         :      0.283u      0.000s      0.171w      1 calls
JKGrad: Awmn                        :      0.000u      0.000s      0.000w      1 calls
JKGrad: AB                          :      0.267u      0.000s      0.166w      1 calls
JKGrad: UV                          :      0.000u      0.000s      0.000w      1 calls
JKGrad: ABx                         :      0.133u      0.000s      0.075w      1 calls
JKGrad: Amnx                        :      1.150u      0.000s      0.689w      1 calls
Grad: XC                            :      1.350u      0.017s      0.818w      1 calls
V_xc gradient                       :      0.433u      0.017s      0.292w   2965 calls

--------------------------------------------------------------------------------------
V: Grid                             :      1.183u      0.000s      0.723w      1 calls
DFH: sparsity prep                  :      0.017u      0.000s      0.012w      1 calls
DFH: initialize()                   :      0.617u      0.017s      0.387w      1 calls
| DFH: AO Construction              :      0.267u      0.000s      0.155w      1 calls
| DFH: AO-Met. Contraction          :      0.050u      0.000s      0.045w      1 calls
HF: Form core H                     :      0.000u      0.000s      0.002w      1 calls
HF: Form S/X                        :      0.000u      0.000s      0.000w      1 calls
HF: Guess                           :      0.250u      0.000s      0.153w      1 calls
| SAD Guess                         :      0.233u      0.000s      0.146w      1 calls
HF: Form G                          :      8.650u      0.133s      5.280w     15 calls
| RV: Form V                        :      8.617u      0.133s      5.259w     15 calls
| | Properties                      :      1.583u      0.017s      1.217w  44475 calls
| | Functional                      :      4.383u      0.117s      2.583w  44475 calls
| | V_xc                            :      2.550u      0.000s      1.395w  44475 calls
| JK: D                             :      0.000u      0.000s      0.000w     15 calls
| JK: USO2AO                        :      0.000u      0.000s      0.000w     15 calls
| JK: JK                            :      0.033u      0.000s      0.021w     15 calls
| | DFH: compute_JK()               :      0.033u      0.000s      0.021w     15 calls
| | | DFH: Grabbing AOs             :      0.000u      0.000s      0.000w     15 calls
| | | DFH: compute_J                :      0.033u      0.000s      0.020w     15 calls
| JK: AO2USO                        :      0.000u      0.000s      0.000w     15 calls
HF: Form F                          :      0.000u      0.000s      0.000w     15 calls
HF: Form D                          :      0.000u      0.000s      0.000w     15 calls
HF: DIIS                            :      0.033u      0.000s      0.016w     14 calls
| DIISManager::add_entry            :      0.000u      0.000s      0.001w     14 calls
| DIISManager::extrapolate          :      0.000u      0.000s      0.011w     14 calls
| | bMatrix setup                   :      0.000u      0.000s      0.010w     14 calls
| | bMatrix pseudoinverse           :      0.000u      0.000s      0.000w     14 calls
| | New vector                      :      0.000u      0.000s      0.000w     14 calls
HF: Form C                          :      0.000u      0.000s      0.003w     14 calls
Grad: V T Perturb                   :      0.083u      0.000s      0.051w      1 calls
Grad: S                             :      0.000u      0.000s      0.001w      1 calls
Grad: JK                            :      1.867u      0.000s      1.123w      1 calls
| JKGrad: Amn                       :      0.283u      0.000s      0.171w      1 calls
| JKGrad: Awmn                      :      0.000u      0.000s      0.000w      1 calls
| JKGrad: AB                        :      0.267u      0.000s      0.166w      1 calls
| JKGrad: UV                        :      0.000u      0.000s      0.000w      1 calls
| JKGrad: ABx                       :      0.133u      0.000s      0.075w      1 calls
| JKGrad: Amnx                      :      1.150u      0.000s      0.689w      1 calls
Grad: XC                            :      1.350u      0.017s      0.818w      1 calls
| Properties                        :      0.600u      0.000s      0.345w   2965 calls
| Functional                        :      0.317u      0.000s      0.175w   2965 calls
| V_xc gradient                     :      0.433u      0.017s      0.292w   2965 calls

**************************************************************************************

Host: aaojha

Timers On : Fri May 14 10:03:53 2021
Timers Off: Fri May 14 10:04:02 2021

Wall Time:        9.31 seconds

                                                       Time (seconds)
Module                                       User      System        Wall        Calls
V: Grid                             :      1.217u      0.033s      0.739w      1 calls
DFH: sparsity prep                  :      0.017u      0.000s      0.012w      1 calls
DFH: initialize()                   :      0.650u      0.017s      0.391w      1 calls
DFH: AO Construction                :      0.267u      0.000s      0.158w      1 calls
DFH: AO-Met. Contraction            :      0.067u      0.017s      0.045w      1 calls
HF: Form core H                     :      0.000u      0.000s      0.002w      1 calls
HF: Form S/X                        :      0.000u      0.000s      0.000w      1 calls
HF: Guess                           :      0.267u      0.000s      0.153w      1 calls
SAD Guess                           :      0.250u      0.000s      0.146w      1 calls
HF: Form G                          :      8.017u      0.133s      4.908w     14 calls
RV: Form V                          :      7.983u      0.133s      4.888w     14 calls
Properties                          :      2.550u      0.033s      1.472w  44520 calls
Functional                          :      4.067u      0.033s      2.591w  44520 calls
V_xc                                :      2.100u      0.050s      1.289w  41552 calls
JK: D                               :      0.000u      0.000s      0.000w     14 calls
JK: USO2AO                          :      0.000u      0.000s      0.000w     14 calls
JK: JK                              :      0.033u      0.000s      0.019w     14 calls
DFH: compute_JK()                   :      0.033u      0.000s      0.019w     14 calls
DFH: Grabbing AOs                   :      0.000u      0.000s      0.000w     14 calls
DFH: compute_J                      :      0.033u      0.000s      0.019w     14 calls
JK: AO2USO                          :      0.000u      0.000s      0.000w     14 calls
HF: Form F                          :      0.000u      0.000s      0.000w     14 calls
HF: Form D                          :      0.000u      0.000s      0.000w     14 calls
HF: DIIS                            :      0.017u      0.000s      0.006w     13 calls
DIISManager::add_entry              :      0.000u      0.000s      0.001w     13 calls
DIISManager::extrapolate            :      0.000u      0.000s      0.001w     13 calls
bMatrix setup                       :      0.000u      0.000s      0.001w     13 calls
bMatrix pseudoinverse               :      0.000u      0.000s      0.000w     13 calls
New vector                          :      0.000u      0.000s      0.000w     13 calls
HF: Form C                          :      0.000u      0.000s      0.003w     13 calls
Grad: V T Perturb                   :      0.083u      0.000s      0.050w      1 calls
Grad: S                             :      0.017u      0.000s      0.001w      1 calls
Grad: JK                            :      1.833u      0.000s      1.111w      1 calls
JKGrad: Amn                         :      0.283u      0.000s      0.174w      1 calls
JKGrad: Awmn                        :      0.000u      0.000s      0.000w      1 calls
JKGrad: AB                          :      0.283u      0.000s      0.166w      1 calls
JKGrad: UV                          :      0.000u      0.000s      0.000w      1 calls
JKGrad: ABx                         :      0.117u      0.000s      0.074w      1 calls
JKGrad: Amnx                        :      1.133u      0.000s      0.682w      1 calls
Grad: XC                            :      1.367u      0.017s      0.820w      1 calls
V_xc gradient                       :      0.467u      0.017s      0.295w   2968 calls

--------------------------------------------------------------------------------------
V: Grid                             :      1.217u      0.033s      0.739w      1 calls
DFH: sparsity prep                  :      0.017u      0.000s      0.012w      1 calls
DFH: initialize()                   :      0.650u      0.017s      0.391w      1 calls
| DFH: AO Construction              :      0.267u      0.000s      0.158w      1 calls
| DFH: AO-Met. Contraction          :      0.067u      0.017s      0.045w      1 calls
HF: Form core H                     :      0.000u      0.000s      0.002w      1 calls
HF: Form S/X                        :      0.000u      0.000s      0.000w      1 calls
HF: Guess                           :      0.267u      0.000s      0.153w      1 calls
| SAD Guess                         :      0.250u      0.000s      0.146w      1 calls
HF: Form G                          :      8.017u      0.133s      4.908w     14 calls
| RV: Form V                        :      7.983u      0.133s      4.888w     14 calls
| | Properties                      :      1.950u      0.033s      1.125w  41552 calls
| | Functional                      :      3.800u      0.033s      2.418w  41552 calls
| | V_xc                            :      2.100u      0.050s      1.289w  41552 calls
| JK: D                             :      0.000u      0.000s      0.000w     14 calls
| JK: USO2AO                        :      0.000u      0.000s      0.000w     14 calls
| JK: JK                            :      0.033u      0.000s      0.019w     14 calls
| | DFH: compute_JK()               :      0.033u      0.000s      0.019w     14 calls
| | | DFH: Grabbing AOs             :      0.000u      0.000s      0.000w     14 calls
| | | DFH: compute_J                :      0.033u      0.000s      0.019w     14 calls
| JK: AO2USO                        :      0.000u      0.000s      0.000w     14 calls
HF: Form F                          :      0.000u      0.000s      0.000w     14 calls
HF: Form D                          :      0.000u      0.000s      0.000w     14 calls
HF: DIIS                            :      0.017u      0.000s      0.006w     13 calls
| DIISManager::add_entry            :      0.000u      0.000s      0.001w     13 calls
| DIISManager::extrapolate          :      0.000u      0.000s      0.001w     13 calls
| | bMatrix setup                   :      0.000u      0.000s      0.001w     13 calls
| | bMatrix pseudoinverse           :      0.000u      0.000s      0.000w     13 calls
| | New vector                      :      0.000u      0.000s      0.000w     13 calls
HF: Form C                          :      0.000u      0.000s      0.003w     13 calls
Grad: V T Perturb                   :      0.083u      0.000s      0.050w      1 calls
Grad: S                             :      0.017u      0.000s      0.001w      1 calls
Grad: JK                            :      1.833u      0.000s      1.111w      1 calls
| JKGrad: Amn                       :      0.283u      0.000s      0.174w      1 calls
| JKGrad: Awmn                      :      0.000u      0.000s      0.000w      1 calls
| JKGrad: AB                        :      0.283u      0.000s      0.166w      1 calls
| JKGrad: UV                        :      0.000u      0.000s      0.000w      1 calls
| JKGrad: ABx                       :      0.117u      0.000s      0.074w      1 calls
| JKGrad: Amnx                      :      1.133u      0.000s      0.682w      1 calls
Grad: XC                            :      1.367u      0.017s      0.820w      1 calls
| Properties                        :      0.600u      0.000s      0.348w   2968 calls
| Functional                        :      0.267u      0.000s      0.173w   2968 calls
| V_xc gradient                     :      0.467u      0.017s      0.295w   2968 calls

**************************************************************************************

Host: aaojha

Timers On : Fri May 14 10:04:02 2021
Timers Off: Fri May 14 10:04:12 2021

Wall Time:        9.73 seconds

                                                       Time (seconds)
Module                                       User      System        Wall        Calls
V: Grid                             :      1.200u      0.000s      0.726w      1 calls
DFH: sparsity prep                  :      0.033u      0.000s      0.012w      1 calls
DFH: initialize()                   :      0.633u      0.017s      0.391w      1 calls
DFH: AO Construction                :      0.267u      0.000s      0.159w      1 calls
DFH: AO-Met. Contraction            :      0.067u      0.000s      0.046w      1 calls
HF: Form core H                     :      0.000u      0.000s      0.002w      1 calls
HF: Form S/X                        :      0.000u      0.000s      0.000w      1 calls
HF: Guess                           :      0.250u      0.000s      0.155w      1 calls
SAD Guess                           :      0.233u      0.000s      0.148w      1 calls
HF: Form G                          :      8.683u      0.117s      5.301w     15 calls
RV: Form V                          :      8.583u      0.117s      5.279w     15 calls
Properties                          :      2.233u      0.000s      1.563w  47648 calls
Functional                          :      4.833u      0.100s      2.783w  47648 calls
V_xc                                :      2.117u      0.017s      1.389w  44670 calls
JK: D                               :      0.000u      0.000s      0.000w     15 calls
JK: USO2AO                          :      0.000u      0.000s      0.000w     15 calls
JK: JK                              :      0.100u      0.000s      0.021w     15 calls
DFH: compute_JK()                   :      0.100u      0.000s      0.021w     15 calls
DFH: Grabbing AOs                   :      0.000u      0.000s      0.000w     15 calls
DFH: compute_J                      :      0.100u      0.000s      0.021w     15 calls
JK: AO2USO                          :      0.000u      0.000s      0.000w     15 calls
HF: Form F                          :      0.000u      0.000s      0.000w     15 calls
HF: Form D                          :      0.000u      0.000s      0.000w     15 calls
HF: DIIS                            :      0.033u      0.000s      0.006w     14 calls
DIISManager::add_entry              :      0.000u      0.000s      0.001w     14 calls
DIISManager::extrapolate            :      0.000u      0.000s      0.002w     14 calls
bMatrix setup                       :      0.000u      0.000s      0.001w     14 calls
bMatrix pseudoinverse               :      0.000u      0.000s      0.000w     14 calls
New vector                          :      0.000u      0.000s      0.000w     14 calls
HF: Form C                          :      0.017u      0.000s      0.003w     14 calls
Grad: V T Perturb                   :      0.083u      0.000s      0.051w      1 calls
Grad: S                             :      0.017u      0.000s      0.001w      1 calls
Grad: JK                            :      1.850u      0.000s      1.136w      1 calls
JKGrad: Amn                         :      0.300u      0.000s      0.181w      1 calls
JKGrad: Awmn                        :      0.000u      0.000s      0.000w      1 calls
JKGrad: AB                          :      0.283u      0.000s      0.168w      1 calls
JKGrad: UV                          :      0.000u      0.000s      0.000w      1 calls
JKGrad: ABx                         :      0.117u      0.000s      0.074w      1 calls
JKGrad: Amnx                        :      1.133u      0.000s      0.680w      1 calls
Grad: XC                            :      1.383u      0.000s      0.826w      1 calls
V_xc gradient                       :      0.617u      0.000s      0.301w   2978 calls

--------------------------------------------------------------------------------------
V: Grid                             :      1.200u      0.000s      0.726w      1 calls
DFH: sparsity prep                  :      0.033u      0.000s      0.012w      1 calls
DFH: initialize()                   :      0.633u      0.017s      0.391w      1 calls
| DFH: AO Construction              :      0.267u      0.000s      0.159w      1 calls
| DFH: AO-Met. Contraction          :      0.067u      0.000s      0.046w      1 calls
HF: Form core H                     :      0.000u      0.000s      0.002w      1 calls
HF: Form S/X                        :      0.000u      0.000s      0.000w      1 calls
HF: Guess                           :      0.250u      0.000s      0.155w      1 calls
| SAD Guess                         :      0.233u      0.000s      0.148w      1 calls
HF: Form G                          :      8.683u      0.117s      5.301w     15 calls
| RV: Form V                        :      8.583u      0.117s      5.279w     15 calls
| | Properties                      :      1.767u      0.000s      1.216w  44670 calls
| | Functional                      :      4.550u      0.100s      2.611w  44670 calls
| | V_xc                            :      2.117u      0.017s      1.389w  44670 calls
| JK: D                             :      0.000u      0.000s      0.000w     15 calls
| JK: USO2AO                        :      0.000u      0.000s      0.000w     15 calls
| JK: JK                            :      0.100u      0.000s      0.021w     15 calls
| | DFH: compute_JK()               :      0.100u      0.000s      0.021w     15 calls
| | | DFH: Grabbing AOs             :      0.000u      0.000s      0.000w     15 calls
| | | DFH: compute_J                :      0.100u      0.000s      0.021w     15 calls
| JK: AO2USO                        :      0.000u      0.000s      0.000w     15 calls
HF: Form F                          :      0.000u      0.000s      0.000w     15 calls
HF: Form D                          :      0.000u      0.000s      0.000w     15 calls
HF: DIIS                            :      0.033u      0.000s      0.006w     14 calls
| DIISManager::add_entry            :      0.000u      0.000s      0.001w     14 calls
| DIISManager::extrapolate          :      0.000u      0.000s      0.002w     14 calls
| | bMatrix setup                   :      0.000u      0.000s      0.001w     14 calls
| | bMatrix pseudoinverse           :      0.000u      0.000s      0.000w     14 calls
| | New vector                      :      0.000u      0.000s      0.000w     14 calls
HF: Form C                          :      0.017u      0.000s      0.003w     14 calls
Grad: V T Perturb                   :      0.083u      0.000s      0.051w      1 calls
Grad: S                             :      0.017u      0.000s      0.001w      1 calls
Grad: JK                            :      1.850u      0.000s      1.136w      1 calls
| JKGrad: Amn                       :      0.300u      0.000s      0.181w      1 calls
| JKGrad: Awmn                      :      0.000u      0.000s      0.000w      1 calls
| JKGrad: AB                        :      0.283u      0.000s      0.168w      1 calls
| JKGrad: UV                        :      0.000u      0.000s      0.000w      1 calls
| JKGrad: ABx                       :      0.117u      0.000s      0.074w      1 calls
| JKGrad: Amnx                      :      1.133u      0.000s      0.680w      1 calls
Grad: XC                            :      1.383u      0.000s      0.826w      1 calls
| Properties                        :      0.467u      0.000s      0.347w   2978 calls
| Functional                        :      0.283u      0.000s      0.172w   2978 calls
| V_xc gradient                     :      0.617u      0.000s      0.301w   2978 calls

**************************************************************************************

Host: aaojha

Timers On : Fri May 14 10:04:12 2021
Timers Off: Fri May 14 10:04:22 2021

Wall Time:        9.68 seconds

                                                       Time (seconds)
Module                                       User      System        Wall        Calls
V: Grid                             :      1.183u      0.017s      0.729w      1 calls
DFH: sparsity prep                  :      0.017u      0.000s      0.012w      1 calls
DFH: initialize()                   :      0.617u      0.033s      0.387w      1 calls
DFH: AO Construction                :      0.267u      0.000s      0.155w      1 calls
DFH: AO-Met. Contraction            :      0.067u      0.000s      0.045w      1 calls
HF: Form core H                     :      0.000u      0.000s      0.002w      1 calls
HF: Form S/X                        :      0.000u      0.000s      0.000w      1 calls
HF: Guess                           :      0.250u      0.000s      0.153w      1 calls
SAD Guess                           :      0.250u      0.000s      0.146w      1 calls
HF: Form G                          :      8.683u      0.100s      5.274w     15 calls
RV: Form V                          :      8.683u      0.100s      5.252w     15 calls
Properties                          :      2.450u      0.033s      1.549w  47696 calls
Functional                          :      4.850u      0.067s      2.769w  47696 calls
V_xc                                :      2.017u      0.017s      1.387w  44715 calls
JK: D                               :      0.000u      0.000s      0.000w     15 calls
JK: USO2AO                          :      0.000u      0.000s      0.000w     15 calls
JK: JK                              :      0.000u      0.000s      0.021w     15 calls
DFH: compute_JK()                   :      0.000u      0.000s      0.021w     15 calls
DFH: Grabbing AOs                   :      0.000u      0.000s      0.000w     15 calls
DFH: compute_J                      :      0.000u      0.000s      0.020w     15 calls
JK: AO2USO                          :      0.000u      0.000s      0.000w     15 calls
HF: Form F                          :      0.000u      0.000s      0.000w     15 calls
HF: Form D                          :      0.000u      0.000s      0.000w     15 calls
HF: DIIS                            :      0.000u      0.000s      0.006w     14 calls
DIISManager::add_entry              :      0.000u      0.000s      0.001w     14 calls
DIISManager::extrapolate            :      0.000u      0.000s      0.002w     14 calls
bMatrix setup                       :      0.000u      0.000s      0.001w     14 calls
bMatrix pseudoinverse               :      0.000u      0.000s      0.001w     14 calls
New vector                          :      0.000u      0.000s      0.000w     14 calls
HF: Form C                          :      0.017u      0.000s      0.003w     14 calls
Grad: V T Perturb                   :      0.083u      0.000s      0.051w      1 calls
Grad: S                             :      0.017u      0.000s      0.001w      1 calls
Grad: JK                            :      1.833u      0.000s      1.125w      1 calls
JKGrad: Amn                         :      0.283u      0.000s      0.172w      1 calls
JKGrad: Awmn                        :      0.000u      0.000s      0.000w      1 calls
JKGrad: AB                          :      0.267u      0.000s      0.166w      1 calls
JKGrad: UV                          :      0.000u      0.000s      0.000w      1 calls
JKGrad: ABx                         :      0.133u      0.000s      0.074w      1 calls
JKGrad: Amnx                        :      1.133u      0.000s      0.682w      1 calls
Grad: XC                            :      1.350u      0.017s      0.814w      1 calls
V_xc gradient                       :      0.550u      0.000s      0.293w   2981 calls

--------------------------------------------------------------------------------------
V: Grid                             :      1.183u      0.017s      0.729w      1 calls
DFH: sparsity prep                  :      0.017u      0.000s      0.012w      1 calls
DFH: initialize()                   :      0.617u      0.033s      0.387w      1 calls
| DFH: AO Construction              :      0.267u      0.000s      0.155w      1 calls
| DFH: AO-Met. Contraction          :      0.067u      0.000s      0.045w      1 calls
HF: Form core H                     :      0.000u      0.000s      0.002w      1 calls
HF: Form S/X                        :      0.000u      0.000s      0.000w      1 calls
HF: Guess                           :      0.250u      0.000s      0.153w      1 calls
| SAD Guess                         :      0.250u      0.000s      0.146w      1 calls
HF: Form G                          :      8.683u      0.100s      5.274w     15 calls
| RV: Form V                        :      8.683u      0.100s      5.252w     15 calls
| | Properties                      :      1.983u      0.033s      1.206w  44715 calls
| | Functional                      :      4.517u      0.050s      2.596w  44715 calls
| | V_xc                            :      2.017u      0.017s      1.387w  44715 calls
| JK: D                             :      0.000u      0.000s      0.000w     15 calls
| JK: USO2AO                        :      0.000u      0.000s      0.000w     15 calls
| JK: JK                            :      0.000u      0.000s      0.021w     15 calls
| | DFH: compute_JK()               :      0.000u      0.000s      0.021w     15 calls
| | | DFH: Grabbing AOs             :      0.000u      0.000s      0.000w     15 calls
| | | DFH: compute_J                :      0.000u      0.000s      0.020w     15 calls
| JK: AO2USO                        :      0.000u      0.000s      0.000w     15 calls
HF: Form F                          :      0.000u      0.000s      0.000w     15 calls
HF: Form D                          :      0.000u      0.000s      0.000w     15 calls
HF: DIIS                            :      0.000u      0.000s      0.006w     14 calls
| DIISManager::add_entry            :      0.000u      0.000s      0.001w     14 calls
| DIISManager::extrapolate          :      0.000u      0.000s      0.002w     14 calls
| | bMatrix setup                   :      0.000u      0.000s      0.001w     14 calls
| | bMatrix pseudoinverse           :      0.000u      0.000s      0.001w     14 calls
| | New vector                      :      0.000u      0.000s      0.000w     14 calls
HF: Form C                          :      0.017u      0.000s      0.003w     14 calls
Grad: V T Perturb                   :      0.083u      0.000s      0.051w      1 calls
Grad: S                             :      0.017u      0.000s      0.001w      1 calls
Grad: JK                            :      1.833u      0.000s      1.125w      1 calls
| JKGrad: Amn                       :      0.283u      0.000s      0.172w      1 calls
| JKGrad: Awmn                      :      0.000u      0.000s      0.000w      1 calls
| JKGrad: AB                        :      0.267u      0.000s      0.166w      1 calls
| JKGrad: UV                        :      0.000u      0.000s      0.000w      1 calls
| JKGrad: ABx                       :      0.133u      0.000s      0.074w      1 calls
| JKGrad: Amnx                      :      1.133u      0.000s      0.682w      1 calls
Grad: XC                            :      1.350u      0.017s      0.814w      1 calls
| Properties                        :      0.467u      0.000s      0.344w   2981 calls
| Functional                        :      0.333u      0.017s      0.173w   2981 calls
| V_xc gradient                     :      0.550u      0.000s      0.293w   2981 calls

**************************************************************************************

Host: aaojha

Timers On : Fri May 14 10:04:22 2021
Timers Off: Fri May 14 10:04:32 2021

Wall Time:        9.71 seconds

                                                       Time (seconds)
Module                                       User      System        Wall        Calls
V: Grid                             :      1.233u      0.017s      0.757w      1 calls
DFH: sparsity prep                  :      0.017u      0.000s      0.013w      1 calls
DFH: initialize()                   :      0.633u      0.017s      0.387w      1 calls
DFH: AO Construction                :      0.267u      0.000s      0.155w      1 calls
DFH: AO-Met. Contraction            :      0.067u      0.000s      0.046w      1 calls
HF: Form core H                     :      0.000u      0.000s      0.000w      1 calls
HF: Form S/X                        :      0.000u      0.000s      0.000w      1 calls
HF: Guess                           :      0.250u      0.000s      0.153w      1 calls
SAD Guess                           :      0.233u      0.000s      0.146w      1 calls
HF: Form G                          :      8.667u      0.100s      5.273w     15 calls
RV: Form V                          :      8.617u      0.100s      5.252w     15 calls
Properties                          :      2.733u      0.033s      1.555w  47696 calls
Functional                          :      4.333u      0.050s      2.770w  47696 calls
V_xc                                :      2.217u      0.033s      1.386w  44715 calls
JK: D                               :      0.000u      0.000s      0.000w     15 calls
JK: USO2AO                          :      0.000u      0.000s      0.000w     15 calls
JK: JK                              :      0.050u      0.000s      0.021w     15 calls
DFH: compute_JK()                   :      0.050u      0.000s      0.021w     15 calls
DFH: Grabbing AOs                   :      0.000u      0.000s      0.000w     15 calls
DFH: compute_J                      :      0.050u      0.000s      0.020w     15 calls
JK: AO2USO                          :      0.000u      0.000s      0.000w     15 calls
HF: Form F                          :      0.000u      0.000s      0.000w     15 calls
HF: Form D                          :      0.000u      0.000s      0.000w     15 calls
HF: DIIS                            :      0.033u      0.000s      0.006w     14 calls
DIISManager::add_entry              :      0.017u      0.000s      0.001w     14 calls
DIISManager::extrapolate            :      0.000u      0.000s      0.002w     14 calls
bMatrix setup                       :      0.000u      0.000s      0.001w     14 calls
bMatrix pseudoinverse               :      0.000u      0.000s      0.000w     14 calls
New vector                          :      0.000u      0.000s      0.000w     14 calls
HF: Form C                          :      0.000u      0.000s      0.003w     14 calls
Grad: V T Perturb                   :      0.083u      0.000s      0.051w      1 calls
Grad: S                             :      0.017u      0.000s      0.001w      1 calls
Grad: JK                            :      1.833u      0.000s      1.112w      1 calls
JKGrad: Amn                         :      0.283u      0.000s      0.171w      1 calls
JKGrad: Awmn                        :      0.000u      0.000s      0.000w      1 calls
JKGrad: AB                          :      0.267u      0.000s      0.165w      1 calls
JKGrad: UV                          :      0.000u      0.000s      0.000w      1 calls
JKGrad: ABx                         :      0.133u      0.000s      0.074w      1 calls
JKGrad: Amnx                        :      1.133u      0.000s      0.679w      1 calls
Grad: XC                            :      1.333u      0.017s      0.819w      1 calls
V_xc gradient                       :      0.517u      0.000s      0.291w   2981 calls

--------------------------------------------------------------------------------------
V: Grid                             :      1.233u      0.017s      0.757w      1 calls
DFH: sparsity prep                  :      0.017u      0.000s      0.013w      1 calls
DFH: initialize()                   :      0.633u      0.017s      0.387w      1 calls
| DFH: AO Construction              :      0.267u      0.000s      0.155w      1 calls
| DFH: AO-Met. Contraction          :      0.067u      0.000s      0.046w      1 calls
HF: Form core H                     :      0.000u      0.000s      0.000w      1 calls
HF: Form S/X                        :      0.000u      0.000s      0.000w      1 calls
HF: Guess                           :      0.250u      0.000s      0.153w      1 calls
| SAD Guess                         :      0.233u      0.000s      0.146w      1 calls
HF: Form G                          :      8.667u      0.100s      5.273w     15 calls
| RV: Form V                        :      8.617u      0.100s      5.252w     15 calls
| | Properties                      :      2.183u      0.017s      1.207w  44715 calls
| | Functional                      :      4.067u      0.050s      2.596w  44715 calls
| | V_xc                            :      2.217u      0.033s      1.386w  44715 calls
| JK: D                             :      0.000u      0.000s      0.000w     15 calls
| JK: USO2AO                        :      0.000u      0.000s      0.000w     15 calls
| JK: JK                            :      0.050u      0.000s      0.021w     15 calls
| | DFH: compute_JK()               :      0.050u      0.000s      0.021w     15 calls
| | | DFH: Grabbing AOs             :      0.000u      0.000s      0.000w     15 calls
| | | DFH: compute_J                :      0.050u      0.000s      0.020w     15 calls
| JK: AO2USO                        :      0.000u      0.000s      0.000w     15 calls
HF: Form F                          :      0.000u      0.000s      0.000w     15 calls
HF: Form D                          :      0.000u      0.000s      0.000w     15 calls
HF: DIIS                            :      0.033u      0.000s      0.006w     14 calls
| DIISManager::add_entry            :      0.017u      0.000s      0.001w     14 calls
| DIISManager::extrapolate          :      0.000u      0.000s      0.002w     14 calls
| | bMatrix setup                   :      0.000u      0.000s      0.001w     14 calls
| | bMatrix pseudoinverse           :      0.000u      0.000s      0.000w     14 calls
| | New vector                      :      0.000u      0.000s      0.000w     14 calls
HF: Form C                          :      0.000u      0.000s      0.003w     14 calls
Grad: V T Perturb                   :      0.083u      0.000s      0.051w      1 calls
Grad: S                             :      0.017u      0.000s      0.001w      1 calls
Grad: JK                            :      1.833u      0.000s      1.112w      1 calls
| JKGrad: Amn                       :      0.283u      0.000s      0.171w      1 calls
| JKGrad: Awmn                      :      0.000u      0.000s      0.000w      1 calls
| JKGrad: AB                        :      0.267u      0.000s      0.165w      1 calls
| JKGrad: UV                        :      0.000u      0.000s      0.000w      1 calls
| JKGrad: ABx                       :      0.133u      0.000s      0.074w      1 calls
| JKGrad: Amnx                      :      1.133u      0.000s      0.679w      1 calls
Grad: XC                            :      1.333u      0.017s      0.819w      1 calls
| Properties                        :      0.550u      0.017s      0.348w   2981 calls
| Functional                        :      0.267u      0.000s      0.174w   2981 calls
| V_xc gradient                     :      0.517u      0.000s      0.291w   2981 calls

**************************************************************************************

Host: aaojha

Timers On : Fri May 14 10:04:32 2021
Timers Off: Fri May 14 10:04:42 2021

Wall Time:        9.68 seconds

                                                       Time (seconds)
Module                                       User      System        Wall        Calls
V: Grid                             :      1.183u      0.000s      0.721w      1 calls
DFH: sparsity prep                  :      0.033u      0.000s      0.012w      1 calls
DFH: initialize()                   :      0.617u      0.033s      0.389w      1 calls
DFH: AO Construction                :      0.250u      0.000s      0.155w      1 calls
DFH: AO-Met. Contraction            :      0.067u      0.017s      0.046w      1 calls
HF: Form core H                     :      0.000u      0.000s      0.002w      1 calls
HF: Form S/X                        :      0.000u      0.000s      0.000w      1 calls
HF: Guess                           :      0.267u      0.000s      0.153w      1 calls
SAD Guess                           :      0.250u      0.000s      0.146w      1 calls
HF: Form G                          :      8.633u      0.150s      5.278w     15 calls
RV: Form V                          :      8.583u      0.150s      5.257w     15 calls
Properties                          :      2.467u      0.017s      1.562w  47776 calls
Functional                          :      4.717u      0.050s      2.765w  47776 calls
V_xc                                :      2.200u      0.083s      1.396w  44790 calls
JK: D                               :      0.000u      0.000s      0.000w     15 calls
JK: USO2AO                          :      0.000u      0.000s      0.000w     15 calls
JK: JK                              :      0.050u      0.000s      0.021w     15 calls
DFH: compute_JK()                   :      0.050u      0.000s      0.021w     15 calls
DFH: Grabbing AOs                   :      0.000u      0.000s      0.000w     15 calls
DFH: compute_J                      :      0.050u      0.000s      0.020w     15 calls
JK: AO2USO                          :      0.000u      0.000s      0.000w     15 calls
HF: Form F                          :      0.000u      0.000s      0.000w     15 calls
HF: Form D                          :      0.000u      0.000s      0.000w     15 calls
HF: DIIS                            :      0.000u      0.000s      0.006w     14 calls
DIISManager::add_entry              :      0.000u      0.000s      0.001w     14 calls
DIISManager::extrapolate            :      0.000u      0.000s      0.002w     14 calls
bMatrix setup                       :      0.000u      0.000s      0.001w     14 calls
bMatrix pseudoinverse               :      0.000u      0.000s      0.000w     14 calls
New vector                          :      0.000u      0.000s      0.000w     14 calls
HF: Form C                          :      0.000u      0.000s      0.003w     14 calls
Grad: V T Perturb                   :      0.083u      0.000s      0.051w      1 calls
Grad: S                             :      0.000u      0.000s      0.001w      1 calls
Grad: JK                            :      1.850u      0.000s      1.124w      1 calls
JKGrad: Amn                         :      0.283u      0.000s      0.171w      1 calls
JKGrad: Awmn                        :      0.000u      0.000s      0.000w      1 calls
JKGrad: AB                          :      0.283u      0.000s      0.165w      1 calls
JKGrad: UV                          :      0.000u      0.000s      0.000w      1 calls
JKGrad: ABx                         :      0.117u      0.000s      0.073w      1 calls
JKGrad: Amnx                        :      1.133u      0.000s      0.683w      1 calls
Grad: XC                            :      1.367u      0.017s      0.830w      1 calls
V_xc gradient                       :      0.433u      0.000s      0.296w   2986 calls

--------------------------------------------------------------------------------------
V: Grid                             :      1.183u      0.000s      0.721w      1 calls
DFH: sparsity prep                  :      0.033u      0.000s      0.012w      1 calls
DFH: initialize()                   :      0.617u      0.033s      0.389w      1 calls
| DFH: AO Construction              :      0.250u      0.000s      0.155w      1 calls
| DFH: AO-Met. Contraction          :      0.067u      0.017s      0.046w      1 calls
HF: Form core H                     :      0.000u      0.000s      0.002w      1 calls
HF: Form S/X                        :      0.000u      0.000s      0.000w      1 calls
HF: Guess                           :      0.267u      0.000s      0.153w      1 calls
| SAD Guess                         :      0.250u      0.000s      0.146w      1 calls
HF: Form G                          :      8.633u      0.150s      5.278w     15 calls
| RV: Form V                        :      8.583u      0.150s      5.257w     15 calls
| | Properties                      :      1.800u      0.000s      1.210w  44790 calls
| | Functional                      :      4.467u      0.050s      2.588w  44790 calls
| | V_xc                            :      2.200u      0.083s      1.396w  44790 calls
| JK: D                             :      0.000u      0.000s      0.000w     15 calls
| JK: USO2AO                        :      0.000u      0.000s      0.000w     15 calls
| JK: JK                            :      0.050u      0.000s      0.021w     15 calls
| | DFH: compute_JK()               :      0.050u      0.000s      0.021w     15 calls
| | | DFH: Grabbing AOs             :      0.000u      0.000s      0.000w     15 calls
| | | DFH: compute_J                :      0.050u      0.000s      0.020w     15 calls
| JK: AO2USO                        :      0.000u      0.000s      0.000w     15 calls
HF: Form F                          :      0.000u      0.000s      0.000w     15 calls
HF: Form D                          :      0.000u      0.000s      0.000w     15 calls
HF: DIIS                            :      0.000u      0.000s      0.006w     14 calls
| DIISManager::add_entry            :      0.000u      0.000s      0.001w     14 calls
| DIISManager::extrapolate          :      0.000u      0.000s      0.002w     14 calls
| | bMatrix setup                   :      0.000u      0.000s      0.001w     14 calls
| | bMatrix pseudoinverse           :      0.000u      0.000s      0.000w     14 calls
| | New vector                      :      0.000u      0.000s      0.000w     14 calls
HF: Form C                          :      0.000u      0.000s      0.003w     14 calls
Grad: V T Perturb                   :      0.083u      0.000s      0.051w      1 calls
Grad: S                             :      0.000u      0.000s      0.001w      1 calls
Grad: JK                            :      1.850u      0.000s      1.124w      1 calls
| JKGrad: Amn                       :      0.283u      0.000s      0.171w      1 calls
| JKGrad: Awmn                      :      0.000u      0.000s      0.000w      1 calls
| JKGrad: AB                        :      0.283u      0.000s      0.165w      1 calls
| JKGrad: UV                        :      0.000u      0.000s      0.000w      1 calls
| JKGrad: ABx                       :      0.117u      0.000s      0.073w      1 calls
| JKGrad: Amnx                      :      1.133u      0.000s      0.683w      1 calls
Grad: XC                            :      1.367u      0.017s      0.830w      1 calls
| Properties                        :      0.667u      0.017s      0.352w   2986 calls
| Functional                        :      0.250u      0.000s      0.177w   2986 calls
| V_xc gradient                     :      0.433u      0.000s      0.296w   2986 calls

**************************************************************************************

Host: aaojha

Timers On : Fri May 14 10:04:42 2021
Timers Off: Fri May 14 10:04:52 2021

Wall Time:        9.70 seconds

                                                       Time (seconds)
Module                                       User      System        Wall        Calls
V: Grid                             :      1.217u      0.000s      0.732w      1 calls
DFH: sparsity prep                  :      0.017u      0.000s      0.012w      1 calls
DFH: initialize()                   :      0.633u      0.017s      0.384w      1 calls
DFH: AO Construction                :      0.267u      0.000s      0.154w      1 calls
DFH: AO-Met. Contraction            :      0.067u      0.000s      0.045w      1 calls
HF: Form core H                     :      0.000u      0.000s      0.002w      1 calls
HF: Form S/X                        :      0.000u      0.000s      0.000w      1 calls
HF: Guess                           :      0.250u      0.000s      0.153w      1 calls
SAD Guess                           :      0.233u      0.000s      0.147w      1 calls
HF: Form G                          :      8.683u      0.117s      5.274w     15 calls
RV: Form V                          :      8.600u      0.117s      5.253w     15 calls
Properties                          :      2.700u      0.017s      1.573w  47616 calls
Functional                          :      4.533u      0.083s      2.761w  47616 calls
V_xc                                :      2.250u      0.017s      1.387w  44640 calls
JK: D                               :      0.000u      0.000s      0.000w     15 calls
JK: USO2AO                          :      0.000u      0.000s      0.000w     15 calls
JK: JK                              :      0.083u      0.000s      0.021w     15 calls
DFH: compute_JK()                   :      0.083u      0.000s      0.021w     15 calls
DFH: Grabbing AOs                   :      0.000u      0.000s      0.000w     15 calls
DFH: compute_J                      :      0.083u      0.000s      0.021w     15 calls
JK: AO2USO                          :      0.000u      0.000s      0.000w     15 calls
HF: Form F                          :      0.000u      0.000s      0.000w     15 calls
HF: Form D                          :      0.000u      0.000s      0.000w     15 calls
HF: DIIS                            :      0.017u      0.000s      0.006w     14 calls
DIISManager::add_entry              :      0.000u      0.000s      0.001w     14 calls
DIISManager::extrapolate            :      0.000u      0.000s      0.002w     14 calls
bMatrix setup                       :      0.000u      0.000s      0.001w     14 calls
bMatrix pseudoinverse               :      0.000u      0.000s      0.000w     14 calls
New vector                          :      0.000u      0.000s      0.000w     14 calls
HF: Form C                          :      0.000u      0.000s      0.003w     14 calls
Grad: V T Perturb                   :      0.083u      0.000s      0.052w      1 calls
Grad: S                             :      0.000u      0.000s      0.001w      1 calls
Grad: JK                            :      1.850u      0.017s      1.116w      1 calls
JKGrad: Amn                         :      0.283u      0.000s      0.171w      1 calls
JKGrad: Awmn                        :      0.000u      0.000s      0.000w      1 calls
JKGrad: AB                          :      0.267u      0.000s      0.165w      1 calls
JKGrad: UV                          :      0.000u      0.000s      0.000w      1 calls
JKGrad: ABx                         :      0.133u      0.017s      0.073w      1 calls
JKGrad: Amnx                        :      1.133u      0.000s      0.682w      1 calls
Grad: XC                            :      1.383u      0.000s      0.836w      1 calls
V_xc gradient                       :      0.433u      0.000s      0.300w   2976 calls

--------------------------------------------------------------------------------------
V: Grid                             :      1.217u      0.000s      0.732w      1 calls
DFH: sparsity prep                  :      0.017u      0.000s      0.012w      1 calls
DFH: initialize()                   :      0.633u      0.017s      0.384w      1 calls
| DFH: AO Construction              :      0.267u      0.000s      0.154w      1 calls
| DFH: AO-Met. Contraction          :      0.067u      0.000s      0.045w      1 calls
HF: Form core H                     :      0.000u      0.000s      0.002w      1 calls
HF: Form S/X                        :      0.000u      0.000s      0.000w      1 calls
HF: Guess                           :      0.250u      0.000s      0.153w      1 calls
| SAD Guess                         :      0.233u      0.000s      0.147w      1 calls
HF: Form G                          :      8.683u      0.117s      5.274w     15 calls
| RV: Form V                        :      8.600u      0.117s      5.253w     15 calls
| | Properties                      :      2.033u      0.017s      1.216w  44640 calls
| | Functional                      :      4.250u      0.083s      2.586w  44640 calls
| | V_xc                            :      2.250u      0.017s      1.387w  44640 calls
| JK: D                             :      0.000u      0.000s      0.000w     15 calls
| JK: USO2AO                        :      0.000u      0.000s      0.000w     15 calls
| JK: JK                            :      0.083u      0.000s      0.021w     15 calls
| | DFH: compute_JK()               :      0.083u      0.000s      0.021w     15 calls
| | | DFH: Grabbing AOs             :      0.000u      0.000s      0.000w     15 calls
| | | DFH: compute_J                :      0.083u      0.000s      0.021w     15 calls
| JK: AO2USO                        :      0.000u      0.000s      0.000w     15 calls
HF: Form F                          :      0.000u      0.000s      0.000w     15 calls
HF: Form D                          :      0.000u      0.000s      0.000w     15 calls
HF: DIIS                            :      0.017u      0.000s      0.006w     14 calls
| DIISManager::add_entry            :      0.000u      0.000s      0.001w     14 calls
| DIISManager::extrapolate          :      0.000u      0.000s      0.002w     14 calls
| | bMatrix setup                   :      0.000u      0.000s      0.001w     14 calls
| | bMatrix pseudoinverse           :      0.000u      0.000s      0.000w     14 calls
| | New vector                      :      0.000u      0.000s      0.000w     14 calls
HF: Form C                          :      0.000u      0.000s      0.003w     14 calls
Grad: V T Perturb                   :      0.083u      0.000s      0.052w      1 calls
Grad: S                             :      0.000u      0.000s      0.001w      1 calls
Grad: JK                            :      1.850u      0.017s      1.116w      1 calls
| JKGrad: Amn                       :      0.283u      0.000s      0.171w      1 calls
| JKGrad: Awmn                      :      0.000u      0.000s      0.000w      1 calls
| JKGrad: AB                        :      0.267u      0.000s      0.165w      1 calls
| JKGrad: UV                        :      0.000u      0.000s      0.000w      1 calls
| JKGrad: ABx                       :      0.133u      0.017s      0.073w      1 calls
| JKGrad: Amnx                      :      1.133u      0.000s      0.682w      1 calls
Grad: XC                            :      1.383u      0.000s      0.836w      1 calls
| Properties                        :      0.667u      0.000s      0.357w   2976 calls
| Functional                        :      0.283u      0.000s      0.175w   2976 calls
| V_xc gradient                     :      0.433u      0.000s      0.300w   2976 calls

**************************************************************************************

Host: aaojha

Timers On : Fri May 14 10:04:52 2021
Timers Off: Fri May 14 10:05:02 2021

Wall Time:        9.73 seconds

                                                       Time (seconds)
Module                                       User      System        Wall        Calls
V: Grid                             :      1.183u      0.033s      0.725w      1 calls
DFH: sparsity prep                  :      0.033u      0.000s      0.012w      1 calls
DFH: initialize()                   :      0.617u      0.017s      0.389w      1 calls
DFH: AO Construction                :      0.267u      0.000s      0.158w      1 calls
DFH: AO-Met. Contraction            :      0.067u      0.000s      0.045w      1 calls
HF: Form core H                     :      0.000u      0.000s      0.002w      1 calls
HF: Form S/X                        :      0.000u      0.000s      0.000w      1 calls
HF: Guess                           :      0.250u      0.000s      0.153w      1 calls
SAD Guess                           :      0.250u      0.000s      0.146w      1 calls
HF: Form G                          :      8.700u      0.100s      5.298w     15 calls
RV: Form V                          :      8.700u      0.100s      5.276w     15 calls
Properties                          :      2.567u      0.000s      1.565w  47616 calls
Functional                          :      4.883u      0.050s      2.790w  47616 calls
V_xc                                :      2.117u      0.033s      1.388w  44640 calls
JK: D                               :      0.000u      0.000s      0.000w     15 calls
JK: USO2AO                          :      0.000u      0.000s      0.000w     15 calls
JK: JK                              :      0.000u      0.000s      0.021w     15 calls
DFH: compute_JK()                   :      0.000u      0.000s      0.021w     15 calls
DFH: Grabbing AOs                   :      0.000u      0.000s      0.000w     15 calls
DFH: compute_J                      :      0.000u      0.000s      0.021w     15 calls
JK: AO2USO                          :      0.000u      0.000s      0.000w     15 calls
HF: Form F                          :      0.000u      0.000s      0.000w     15 calls
HF: Form D                          :      0.000u      0.000s      0.000w     15 calls
HF: DIIS                            :      0.017u      0.000s      0.016w     14 calls
DIISManager::add_entry              :      0.000u      0.000s      0.001w     14 calls
DIISManager::extrapolate            :      0.017u      0.000s      0.011w     14 calls
bMatrix setup                       :      0.000u      0.000s      0.010w     14 calls
bMatrix pseudoinverse               :      0.000u      0.000s      0.000w     14 calls
New vector                          :      0.017u      0.000s      0.000w     14 calls
HF: Form C                          :      0.017u      0.000s      0.003w     14 calls
Grad: V T Perturb                   :      0.083u      0.000s      0.050w      1 calls
Grad: S                             :      0.000u      0.000s      0.001w      1 calls
Grad: JK                            :      1.850u      0.000s      1.120w      1 calls
JKGrad: Amn                         :      0.283u      0.000s      0.173w      1 calls
JKGrad: Awmn                        :      0.000u      0.000s      0.000w      1 calls
JKGrad: AB                          :      0.283u      0.000s      0.167w      1 calls
JKGrad: UV                          :      0.000u      0.000s      0.000w      1 calls
JKGrad: ABx                         :      0.117u      0.000s      0.074w      1 calls
JKGrad: Amnx                        :      1.133u      0.000s      0.685w      1 calls
Grad: XC                            :      1.383u      0.000s      0.830w      1 calls
V_xc gradient                       :      0.383u      0.000s      0.294w   2976 calls

--------------------------------------------------------------------------------------
V: Grid                             :      1.183u      0.033s      0.725w      1 calls
DFH: sparsity prep                  :      0.033u      0.000s      0.012w      1 calls
DFH: initialize()                   :      0.617u      0.017s      0.389w      1 calls
| DFH: AO Construction              :      0.267u      0.000s      0.158w      1 calls
| DFH: AO-Met. Contraction          :      0.067u      0.000s      0.045w      1 calls
HF: Form core H                     :      0.000u      0.000s      0.002w      1 calls
HF: Form S/X                        :      0.000u      0.000s      0.000w      1 calls
HF: Guess                           :      0.250u      0.000s      0.153w      1 calls
| SAD Guess                         :      0.250u      0.000s      0.146w      1 calls
HF: Form G                          :      8.700u      0.100s      5.298w     15 calls
| RV: Form V                        :      8.700u      0.100s      5.276w     15 calls
| | Properties                      :      1.900u      0.000s      1.206w  44640 calls
| | Functional                      :      4.550u      0.050s      2.617w  44640 calls
| | V_xc                            :      2.117u      0.033s      1.388w  44640 calls
| JK: D                             :      0.000u      0.000s      0.000w     15 calls
| JK: USO2AO                        :      0.000u      0.000s      0.000w     15 calls
| JK: JK                            :      0.000u      0.000s      0.021w     15 calls
| | DFH: compute_JK()               :      0.000u      0.000s      0.021w     15 calls
| | | DFH: Grabbing AOs             :      0.000u      0.000s      0.000w     15 calls
| | | DFH: compute_J                :      0.000u      0.000s      0.021w     15 calls
| JK: AO2USO                        :      0.000u      0.000s      0.000w     15 calls
HF: Form F                          :      0.000u      0.000s      0.000w     15 calls
HF: Form D                          :      0.000u      0.000s      0.000w     15 calls
HF: DIIS                            :      0.017u      0.000s      0.016w     14 calls
| DIISManager::add_entry            :      0.000u      0.000s      0.001w     14 calls
| DIISManager::extrapolate          :      0.017u      0.000s      0.011w     14 calls
| | bMatrix setup                   :      0.000u      0.000s      0.010w     14 calls
| | bMatrix pseudoinverse           :      0.000u      0.000s      0.000w     14 calls
| | New vector                      :      0.017u      0.000s      0.000w     14 calls
HF: Form C                          :      0.017u      0.000s      0.003w     14 calls
Grad: V T Perturb                   :      0.083u      0.000s      0.050w      1 calls
Grad: S                             :      0.000u      0.000s      0.001w      1 calls
Grad: JK                            :      1.850u      0.000s      1.120w      1 calls
| JKGrad: Amn                       :      0.283u      0.000s      0.173w      1 calls
| JKGrad: Awmn                      :      0.000u      0.000s      0.000w      1 calls
| JKGrad: AB                        :      0.283u      0.000s      0.167w      1 calls
| JKGrad: UV                        :      0.000u      0.000s      0.000w      1 calls
| JKGrad: ABx                       :      0.117u      0.000s      0.074w      1 calls
| JKGrad: Amnx                      :      1.133u      0.000s      0.685w      1 calls
Grad: XC                            :      1.383u      0.000s      0.830w      1 calls
| Properties                        :      0.667u      0.000s      0.358w   2976 calls
| Functional                        :      0.333u      0.000s      0.173w   2976 calls
| V_xc gradient                     :      0.383u      0.000s      0.294w   2976 calls

**************************************************************************************

Host: aaojha

Timers On : Fri May 14 10:05:02 2021
Timers Off: Fri May 14 10:05:12 2021

Wall Time:        9.71 seconds

                                                       Time (seconds)
Module                                       User      System        Wall        Calls
V: Grid                             :      1.217u      0.000s      0.730w      1 calls
DFH: sparsity prep                  :      0.017u      0.017s      0.012w      1 calls
DFH: initialize()                   :      0.600u      0.033s      0.386w      1 calls
DFH: AO Construction                :      0.250u      0.000s      0.155w      1 calls
DFH: AO-Met. Contraction            :      0.067u      0.017s      0.045w      1 calls
HF: Form core H                     :      0.000u      0.000s      0.002w      1 calls
HF: Form S/X                        :      0.000u      0.000s      0.001w      1 calls
HF: Guess                           :      0.283u      0.000s      0.169w      1 calls
SAD Guess                           :      0.250u      0.000s      0.152w      1 calls
HF: Form G                          :      8.667u      0.100s      5.276w     15 calls
RV: Form V                          :      8.633u      0.100s      5.254w     15 calls
Properties                          :      2.517u      0.033s      1.562w  47648 calls
Functional                          :      4.483u      0.050s      2.762w  47648 calls
V_xc                                :      2.417u      0.033s      1.389w  44670 calls
JK: D                               :      0.000u      0.000s      0.000w     15 calls
JK: USO2AO                          :      0.000u      0.000s      0.000w     15 calls
JK: JK                              :      0.033u      0.000s      0.021w     15 calls
DFH: compute_JK()                   :      0.033u      0.000s      0.021w     15 calls
DFH: Grabbing AOs                   :      0.000u      0.000s      0.000w     15 calls
DFH: compute_J                      :      0.033u      0.000s      0.021w     15 calls
JK: AO2USO                          :      0.000u      0.000s      0.000w     15 calls
HF: Form F                          :      0.000u      0.000s      0.000w     15 calls
HF: Form D                          :      0.000u      0.000s      0.000w     15 calls
HF: DIIS                            :      0.000u      0.000s      0.006w     14 calls
DIISManager::add_entry              :      0.000u      0.000s      0.001w     14 calls
DIISManager::extrapolate            :      0.000u      0.000s      0.002w     14 calls
bMatrix setup                       :      0.000u      0.000s      0.001w     14 calls
bMatrix pseudoinverse               :      0.000u      0.000s      0.000w     14 calls
New vector                          :      0.000u      0.000s      0.000w     14 calls
HF: Form C                          :      0.000u      0.000s      0.003w     14 calls
Grad: V T Perturb                   :      0.083u      0.000s      0.051w      1 calls
Grad: S                             :      0.000u      0.000s      0.001w      1 calls
Grad: JK                            :      1.833u      0.000s      1.127w      1 calls
JKGrad: Amn                         :      0.283u      0.000s      0.170w      1 calls
JKGrad: Awmn                        :      0.000u      0.000s      0.000w      1 calls
JKGrad: AB                          :      0.283u      0.000s      0.166w      1 calls
JKGrad: UV                          :      0.000u      0.000s      0.000w      1 calls
JKGrad: ABx                         :      0.117u      0.000s      0.073w      1 calls
JKGrad: Amnx                        :      1.133u      0.000s      0.685w      1 calls
Grad: XC                            :      1.350u      0.033s      0.823w      1 calls
V_xc gradient                       :      0.383u      0.000s      0.296w   2978 calls

--------------------------------------------------------------------------------------
V: Grid                             :      1.217u      0.000s      0.730w      1 calls
DFH: sparsity prep                  :      0.017u      0.017s      0.012w      1 calls
DFH: initialize()                   :      0.600u      0.033s      0.386w      1 calls
| DFH: AO Construction              :      0.250u      0.000s      0.155w      1 calls
| DFH: AO-Met. Contraction          :      0.067u      0.017s      0.045w      1 calls
HF: Form core H                     :      0.000u      0.000s      0.002w      1 calls
HF: Form S/X                        :      0.000u      0.000s      0.001w      1 calls
HF: Guess                           :      0.283u      0.000s      0.169w      1 calls
| SAD Guess                         :      0.250u      0.000s      0.152w      1 calls
HF: Form G                          :      8.667u      0.100s      5.276w     15 calls
| RV: Form V                        :      8.633u      0.100s      5.254w     15 calls
| | Properties                      :      1.850u      0.017s      1.215w  44670 calls
| | Functional                      :      4.200u      0.050s      2.587w  44670 calls
| | V_xc                            :      2.417u      0.033s      1.389w  44670 calls
| JK: D                             :      0.000u      0.000s      0.000w     15 calls
| JK: USO2AO                        :      0.000u      0.000s      0.000w     15 calls
| JK: JK                            :      0.033u      0.000s      0.021w     15 calls
| | DFH: compute_JK()               :      0.033u      0.000s      0.021w     15 calls
| | | DFH: Grabbing AOs             :      0.000u      0.000s      0.000w     15 calls
| | | DFH: compute_J                :      0.033u      0.000s      0.021w     15 calls
| JK: AO2USO                        :      0.000u      0.000s      0.000w     15 calls
HF: Form F                          :      0.000u      0.000s      0.000w     15 calls
HF: Form D                          :      0.000u      0.000s      0.000w     15 calls
HF: DIIS                            :      0.000u      0.000s      0.006w     14 calls
| DIISManager::add_entry            :      0.000u      0.000s      0.001w     14 calls
| DIISManager::extrapolate          :      0.000u      0.000s      0.002w     14 calls
| | bMatrix setup                   :      0.000u      0.000s      0.001w     14 calls
| | bMatrix pseudoinverse           :      0.000u      0.000s      0.000w     14 calls
| | New vector                      :      0.000u      0.000s      0.000w     14 calls
HF: Form C                          :      0.000u      0.000s      0.003w     14 calls
Grad: V T Perturb                   :      0.083u      0.000s      0.051w      1 calls
Grad: S                             :      0.000u      0.000s      0.001w      1 calls
Grad: JK                            :      1.833u      0.000s      1.127w      1 calls
| JKGrad: Amn                       :      0.283u      0.000s      0.170w      1 calls
| JKGrad: Awmn                      :      0.000u      0.000s      0.000w      1 calls
| JKGrad: AB                        :      0.283u      0.000s      0.166w      1 calls
| JKGrad: UV                        :      0.000u      0.000s      0.000w      1 calls
| JKGrad: ABx                       :      0.117u      0.000s      0.073w      1 calls
| JKGrad: Amnx                      :      1.133u      0.000s      0.685w      1 calls
Grad: XC                            :      1.350u      0.033s      0.823w      1 calls
| Properties                        :      0.667u      0.017s      0.347w   2978 calls
| Functional                        :      0.283u      0.000s      0.175w   2978 calls
| V_xc gradient                     :      0.383u      0.000s      0.296w   2978 calls

**************************************************************************************

Host: aaojha

Timers On : Fri May 14 10:05:12 2021
Timers Off: Fri May 14 10:05:22 2021

Wall Time:        9.68 seconds

                                                       Time (seconds)
Module                                       User      System        Wall        Calls
V: Grid                             :      1.217u      0.000s      0.732w      1 calls
DFH: sparsity prep                  :      0.033u      0.000s      0.012w      1 calls
DFH: initialize()                   :      0.600u      0.033s      0.386w      1 calls
DFH: AO Construction                :      0.250u      0.000s      0.155w      1 calls
DFH: AO-Met. Contraction            :      0.067u      0.017s      0.046w      1 calls
HF: Form core H                     :      0.000u      0.000s      0.002w      1 calls
HF: Form S/X                        :      0.000u      0.000s      0.000w      1 calls
HF: Guess                           :      0.250u      0.000s      0.153w      1 calls
SAD Guess                           :      0.250u      0.000s      0.147w      1 calls
HF: Form G                          :      8.717u      0.133s      5.289w     15 calls
RV: Form V                          :      8.717u      0.133s      5.268w     15 calls
Properties                          :      2.450u      0.017s      1.561w  47632 calls
Functional                          :      4.750u      0.100s      2.775w  47632 calls
V_xc                                :      2.383u      0.017s      1.392w  44655 calls
JK: D                               :      0.000u      0.000s      0.000w     15 calls
JK: USO2AO                          :      0.000u      0.000s      0.000w     15 calls
JK: JK                              :      0.000u      0.000s      0.021w     15 calls
DFH: compute_JK()                   :      0.000u      0.000s      0.021w     15 calls
DFH: Grabbing AOs                   :      0.000u      0.000s      0.000w     15 calls
DFH: compute_J                      :      0.000u      0.000s      0.020w     15 calls
JK: AO2USO                          :      0.000u      0.000s      0.000w     15 calls
HF: Form F                          :      0.000u      0.000s      0.000w     15 calls
HF: Form D                          :      0.000u      0.000s      0.000w     15 calls
HF: DIIS                            :      0.000u      0.000s      0.006w     14 calls
[...]
JKGrad: AB                          :      0.283u      0.000s      0.165w      1 calls
JKGrad: UV                          :      0.000u      0.000s      0.000w      1 calls
JKGrad: ABx                         :      0.117u      0.000s      0.073w      1 calls
JKGrad: Amnx                        :      1.133u      0.000s      0.680w      1 calls
Grad: XC                            :      1.367u      0.000s      0.825w      1 calls
V_xc gradient                       :      0.400u      0.000s      0.298w   2977 calls

--------------------------------------------------------------------------------------
V: Grid                             :      1.217u      0.000s      0.732w      1 calls
DFH: sparsity prep                  :      0.033u      0.000s      0.012w      1 calls
DFH: initialize()                   :      0.600u      0.033s      0.386w      1 calls
| DFH: AO Construction              :      0.250u      0.000s      0.155w      1 calls
| DFH: AO-Met. Contraction          :      0.067u      0.017s      0.046w      1 calls
HF: Form core H                     :      0.000u      0.000s      0.002w      1 calls
HF: Form S/X                        :      0.000u      0.000s      0.000w      1 calls
HF: Guess                           :      0.250u      0.000s      0.153w      1 calls
| SAD Guess                         :      0.250u      0.000s      0.147w      1 calls
HF: Form G                          :      8.717u      0.133s      5.289w     15 calls
| RV: Form V                        :      8.717u      0.133s      5.268w     15 calls
| | Properties                      :      1.817u      0.017s      1.212w  44655 calls
| | Functional                      :      4.417u      0.100s      2.602w  44655 calls
| | V_xc                            :      2.383u      0.017s      1.392w  44655 calls
| JK: D                             :      0.000u      0.000s      0.000w     15 calls
| JK: USO2AO                        :      0.000u      0.000s      0.000w     15 calls
| JK: JK                            :      0.000u      0.000s      0.021w     15 calls
| | DFH: compute_JK()               :      0.000u      0.000s      0.021w     15 calls
| | | DFH: Grabbing AOs             :      0.000u      0.000s      0.000w     15 calls
| | | DFH: compute_J                :      0.000u      0.000s      0.020w     15 calls
| JK: AO2USO                        :      0.000u      0.000s      0.000w     15 calls
HF: Form F                          :      0.000u      0.000s      0.000w     15 calls
HF: Form D                          :      0.000u      0.000s      0.000w     15 calls
HF: DIIS                            :      0.000u      0.000s      0.006w     14 calls
| DIISManager::add_entry            :      0.000u      0.000s      0.001w     14 calls
| DIISManager::extrapolate          :      0.000u      0.000s      0.002w     14 calls
| | bMatrix setup                   :      0.000u      0.000s      0.001w     14 calls
| | bMatrix pseudoinverse           :      0.000u      0.000s      0.000w     14 calls
| | New vector                      :      0.000u      0.000s      0.000w     14 calls
HF: Form C                          :      0.000u      0.000s      0.003w     14 calls
Grad: V T Perturb                   :      0.083u      0.000s      0.051w      1 calls
Grad: S                             :      0.000u      0.000s      0.001w      1 calls
Grad: JK                            :      1.833u      0.000s      1.112w      1 calls
| JKGrad: Amn                       :      0.283u      0.000s      0.171w      1 calls
| JKGrad: Awmn                      :      0.000u      0.000s      0.000w      1 calls
| JKGrad: AB                        :      0.283u      0.000s      0.165w      1 calls
| JKGrad: UV                        :      0.000u      0.000s      0.000w      1 calls
| JKGrad: ABx                       :      0.117u      0.000s      0.073w      1 calls
| JKGrad: Amnx                      :      1.133u      0.000s      0.680w      1 calls
Grad: XC                            :      1.367u      0.000s      0.825w      1 calls
| Properties                        :      0.633u      0.000s      0.349w   2977 calls
| Functional                        :      0.333u      0.000s      0.173w   2977 calls
| V_xc gradient                     :      0.400u      0.000s      0.298w   2977 calls

**************************************************************************************

Host: aaojha

Timers On : Fri May 14 10:05:22 2021
Timers Off: Fri May 14 10:05:31 2021

Wall Time:        9.69 seconds

                                                       Time (seconds)
Module                                       User      System        Wall        Calls
V: Grid                             :      1.183u      0.033s      0.721w      1 calls
DFH: sparsity prep                  :      0.033u      0.000s      0.012w      1 calls
DFH: initialize()                   :      0.633u      0.000s      0.388w      1 calls
DFH: AO Construction                :      0.267u      0.000s      0.155w      1 calls
DFH: AO-Met. Contraction            :      0.083u      0.000s      0.046w      1 calls
HF: Form core H                     :      0.000u      0.000s      0.002w      1 calls
HF: Form S/X                        :      0.000u      0.000s      0.000w      1 calls
HF: Guess                           :      0.250u      0.017s      0.153w      1 calls
SAD Guess                           :      0.250u      0.000s      0.146w      1 calls
HF: Form G                          :      8.667u      0.117s      5.260w     15 calls
RV: Form V                          :      8.650u      0.117s      5.239w     15 calls
Properties                          :      2.533u      0.050s      1.555w  47584 calls
Functional                          :      4.517u      0.050s      2.753w  47584 calls
V_xc                                :      2.333u      0.017s      1.388w  44610 calls
JK: D                               :      0.000u      0.000s      0.000w     15 calls
JK: USO2AO                          :      0.000u      0.000s      0.000w     15 calls
JK: JK                              :      0.017u      0.000s      0.021w     15 calls
DFH: compute_JK()                   :      0.017u      0.000s      0.021w     15 calls
DFH: Grabbing AOs                   :      0.000u      0.000s      0.000w     15 calls
DFH: compute_J                      :      0.017u      0.000s      0.021w     15 calls
JK: AO2USO                          :      0.000u      0.000s      0.000w     15 calls
HF: Form F                          :      0.000u      0.000s      0.000w     15 calls
HF: Form D                          :      0.000u      0.000s      0.000w     15 calls
HF: DIIS                            :      0.017u      0.000s      0.006w     14 calls
DIISManager::add_entry              :      0.000u      0.000s      0.001w     14 calls
DIISManager::extrapolate            :      0.000u      0.000s      0.002w     14 calls
bMatrix setup                       :      0.000u      0.000s      0.001w     14 calls
bMatrix pseudoinverse               :      0.000u      0.000s      0.000w     14 calls
New vector                          :      0.000u      0.000s      0.000w     14 calls
HF: Form C                          :      0.000u      0.000s      0.003w     14 calls
Grad: V T Perturb                   :      0.083u      0.000s      0.052w      1 calls
Grad: S                             :      0.000u      0.000s      0.001w      1 calls
Grad: JK                            :      1.850u      0.000s      1.134w      1 calls
JKGrad: Amn                         :      0.317u      0.000s      0.183w      1 calls
JKGrad: Awmn                        :      0.000u      0.000s      0.000w      1 calls
JKGrad: AB                          :      0.267u      0.000s      0.164w      1 calls
JKGrad: UV                          :      0.000u      0.000s      0.000w      1 calls
JKGrad: ABx                         :      0.117u      0.000s      0.074w      1 calls
JKGrad: Amnx                        :      1.133u      0.000s      0.681w      1 calls
Grad: XC                            :      1.367u      0.000s      0.820w      1 calls
V_xc gradient                       :      0.533u      0.000s      0.296w   2974 calls

--------------------------------------------------------------------------------------
V: Grid                             :      1.183u      0.033s      0.721w      1 calls
DFH: sparsity prep                  :      0.033u      0.000s      0.012w      1 calls
DFH: initialize()                   :      0.633u      0.000s      0.388w      1 calls
| DFH: AO Construction              :      0.267u      0.000s      0.155w      1 calls
| DFH: AO-Met. Contraction          :      0.083u      0.000s      0.046w      1 calls
HF: Form core H                     :      0.000u      0.000s      0.002w      1 calls
HF: Form S/X                        :      0.000u      0.000s      0.000w      1 calls
HF: Guess                           :      0.250u      0.017s      0.153w      1 calls
| SAD Guess                         :      0.250u      0.000s      0.146w      1 calls
HF: Form G                          :      8.667u      0.117s      5.260w     15 calls
| RV: Form V                        :      8.650u      0.117s      5.239w     15 calls
| | Properties                      :      2.017u      0.050s      1.209w  44610 calls
| | Functional                      :      4.217u      0.050s      2.580w  44610 calls
| | V_xc                            :      2.333u      0.017s      1.388w  44610 calls
| JK: D                             :      0.000u      0.000s      0.000w     15 calls
| JK: USO2AO                        :      0.000u      0.000s      0.000w     15 calls
| JK: JK                            :      0.017u      0.000s      0.021w     15 calls
| | DFH: compute_JK()               :      0.017u      0.000s      0.021w     15 calls
| | | DFH: Grabbing AOs             :      0.000u      0.000s      0.000w     15 calls
| | | DFH: compute_J                :      0.017u      0.000s      0.021w     15 calls
| JK: AO2USO                        :      0.000u      0.000s      0.000w     15 calls
HF: Form F                          :      0.000u      0.000s      0.000w     15 calls
HF: Form D                          :      0.000u      0.000s      0.000w     15 calls
HF: DIIS                            :      0.017u      0.000s      0.006w     14 calls
| DIISManager::add_entry            :      0.000u      0.000s      0.001w     14 calls
| DIISManager::extrapolate          :      0.000u      0.000s      0.002w     14 calls
| | bMatrix setup                   :      0.000u      0.000s      0.001w     14 calls
| | bMatrix pseudoinverse           :      0.000u      0.000s      0.000w     14 calls
| | New vector                      :      0.000u      0.000s      0.000w     14 calls
HF: Form C                          :      0.000u      0.000s      0.003w     14 calls
Grad: V T Perturb                   :      0.083u      0.000s      0.052w      1 calls
Grad: S                             :      0.000u      0.000s      0.001w      1 calls
Grad: JK                            :      1.850u      0.000s      1.134w      1 calls
| JKGrad: Amn                       :      0.317u      0.000s      0.183w      1 calls
| JKGrad: Awmn                      :      0.000u      0.000s      0.000w      1 calls
| JKGrad: AB                        :      0.267u      0.000s      0.164w      1 calls
| JKGrad: UV                        :      0.000u      0.000s      0.000w      1 calls
| JKGrad: ABx                       :      0.117u      0.000s      0.074w      1 calls
| JKGrad: Amnx                      :      1.133u      0.000s      0.681w      1 calls
Grad: XC                            :      1.367u      0.000s      0.820w      1 calls
| Properties                        :      0.517u      0.000s      0.346w   2974 calls
| Functional                        :      0.300u      0.000s      0.173w   2974 calls
| V_xc gradient                     :      0.533u      0.000s      0.296w   2974 calls

**************************************************************************************

Host: aaojha

Timers On : Fri May 14 10:05:32 2021
Timers Off: Fri May 14 10:05:41 2021

Wall Time:        9.67 seconds

                                                       Time (seconds)
Module                                       User      System        Wall        Calls
V: Grid                             :      1.183u      0.017s      0.730w      1 calls
DFH: sparsity prep                  :      0.017u      0.000s      0.012w      1 calls
DFH: initialize()                   :      0.617u      0.033s      0.387w      1 calls
DFH: AO Construction                :      0.250u      0.000s      0.156w      1 calls
DFH: AO-Met. Contraction            :      0.067u      0.017s      0.046w      1 calls
HF: Form core H                     :      0.000u      0.000s      0.002w      1 calls
HF: Form S/X                        :      0.000u      0.000s      0.000w      1 calls
HF: Guess                           :      0.267u      0.000s      0.154w      1 calls
SAD Guess                           :      0.250u      0.000s      0.147w      1 calls
HF: Form G                          :      8.600u      0.167s      5.260w     15 calls
RV: Form V                          :      8.567u      0.167s      5.239w     15 calls
Properties                          :      2.617u      0.033s      1.554w  47712 calls
Functional                          :      4.483u      0.067s      2.754w  47712 calls
V_xc                                :      2.150u      0.050s      1.390w  44730 calls
JK: D                               :      0.000u      0.000s      0.000w     15 calls
JK: USO2AO                          :      0.000u      0.000s      0.000w     15 calls
JK: JK                              :      0.033u      0.000s      0.021w     15 calls
DFH: compute_JK()                   :      0.033u      0.000s      0.021w     15 calls
DFH: Grabbing AOs                   :      0.000u      0.000s      0.000w     15 calls
DFH: compute_J                      :      0.033u      0.000s      0.021w     15 calls
JK: AO2USO                          :      0.000u      0.000s      0.000w     15 calls
HF: Form F                          :      0.000u      0.000s      0.000w     15 calls
HF: Form D                          :      0.000u      0.000s      0.000w     15 calls
HF: DIIS                            :      0.000u      0.000s      0.016w     14 calls
DIISManager::add_entry              :      0.000u      0.000s      0.001w     14 calls
DIISManager::extrapolate            :      0.000u      0.000s      0.011w     14 calls
bMatrix setup                       :      0.000u      0.000s      0.010w     14 calls
bMatrix pseudoinverse               :      0.000u      0.000s      0.000w     14 calls
New vector                          :      0.000u      0.000s      0.000w     14 calls
HF: Form C                          :      0.000u      0.000s      0.003w     14 calls
Grad: V T Perturb                   :      0.083u      0.000s      0.051w      1 calls
Grad: S                             :      0.000u      0.000s      0.001w      1 calls
Grad: JK                            :      1.850u      0.000s      1.125w      1 calls
JKGrad: Amn                         :      0.283u      0.000s      0.175w      1 calls
JKGrad: Awmn                        :      0.000u      0.000s      0.000w      1 calls
JKGrad: AB                          :      0.283u      0.000s      0.166w      1 calls
JKGrad: UV                          :      0.000u      0.000s      0.000w      1 calls
JKGrad: ABx                         :      0.117u      0.000s      0.073w      1 calls
JKGrad: Amnx                        :      1.133u      0.000s      0.679w      1 calls
Grad: XC                            :      1.350u      0.017s      0.823w      1 calls
V_xc gradient                       :      0.517u      0.017s      0.295w   2982 calls

--------------------------------------------------------------------------------------
V: Grid                             :      1.183u      0.017s      0.730w      1 calls
DFH: sparsity prep                  :      0.017u      0.000s      0.012w      1 calls
DFH: initialize()                   :      0.617u      0.033s      0.387w      1 calls
| DFH: AO Construction              :      0.250u      0.000s      0.156w      1 calls
| DFH: AO-Met. Contraction          :      0.067u      0.017s      0.046w      1 calls
HF: Form core H                     :      0.000u      0.000s      0.002w      1 calls
HF: Form S/X                        :      0.000u      0.000s      0.000w      1 calls
HF: Guess                           :      0.267u      0.000s      0.154w      1 calls
| SAD Guess                         :      0.250u      0.000s      0.147w      1 calls
HF: Form G                          :      8.600u      0.167s      5.260w     15 calls
| RV: Form V                        :      8.567u      0.167s      5.239w     15 calls
| | Properties                      :      2.017u      0.033s      1.206w  44730 calls
| | Functional                      :      4.250u      0.067s      2.580w  44730 calls
| | V_xc                            :      2.150u      0.050s      1.390w  44730 calls
| JK: D                             :      0.000u      0.000s      0.000w     15 calls
| JK: USO2AO                        :      0.000u      0.000s      0.000w     15 calls
| JK: JK                            :      0.033u      0.000s      0.021w     15 calls
| | DFH: compute_JK()               :      0.033u      0.000s      0.021w     15 calls
| | | DFH: Grabbing AOs             :      0.000u      0.000s      0.000w     15 calls
| | | DFH: compute_J                :      0.033u      0.000s      0.021w     15 calls
| JK: AO2USO                        :      0.000u      0.000s      0.000w     15 calls
HF: Form F                          :      0.000u      0.000s      0.000w     15 calls
HF: Form D                          :      0.000u      0.000s      0.000w     15 calls
HF: DIIS                            :      0.000u      0.000s      0.016w     14 calls
| DIISManager::add_entry            :      0.000u      0.000s      0.001w     14 calls
| DIISManager::extrapolate          :      0.000u      0.000s      0.011w     14 calls
| | bMatrix setup                   :      0.000u      0.000s      0.010w     14 calls
| | bMatrix pseudoinverse           :      0.000u      0.000s      0.000w     14 calls
| | New vector                      :      0.000u      0.000s      0.000w     14 calls
HF: Form C                          :      0.000u      0.000s      0.003w     14 calls
Grad: V T Perturb                   :      0.083u      0.000s      0.051w      1 calls
Grad: S                             :      0.000u      0.000s      0.001w      1 calls
Grad: JK                            :      1.850u      0.000s      1.125w      1 calls
| JKGrad: Amn                       :      0.283u      0.000s      0.175w      1 calls
| JKGrad: Awmn                      :      0.000u      0.000s      0.000w      1 calls
| JKGrad: AB                        :      0.283u      0.000s      0.166w      1 calls
| JKGrad: UV                        :      0.000u      0.000s      0.000w      1 calls
| JKGrad: ABx                       :      0.117u      0.000s      0.073w      1 calls
| JKGrad: Amnx                      :      1.133u      0.000s      0.679w      1 calls
Grad: XC                            :      1.350u      0.017s      0.823w      1 calls
| Properties                        :      0.600u      0.000s      0.349w   2982 calls
| Functional                        :      0.233u      0.000s      0.174w   2982 calls
| V_xc gradient                     :      0.517u      0.017s      0.295w   2982 calls

**************************************************************************************
