18   
Iteration 0 Energy -376.54114356
C        0.1627258000   -0.0138714000   -0.0251669000
C       -0.5545356000   -1.2030431000    0.3382538000
C       -1.9726692000   -1.1829401000    0.3525495000
C       -2.6762878000    0.0076817000    0.0044125000
C       -1.9624000000    1.1909733000   -0.3489221000
C       -0.5442739000    1.1922471000   -0.3505887000
C        1.6725837000   -0.0128274000    0.0060039000
N        2.3801010000   -1.0720616000   -0.5277055000
N        2.3578484000    1.0739271000    0.5129244000
H       -0.0081206000   -2.1203569000    0.6323781000
H       -2.5313547000   -2.0941932000    0.6422446000
H       -3.7846829000    0.0148140000    0.0120580000
H       -2.5129425000    2.1120187000   -0.6229500000
H        0.0102044000    2.1053732000   -0.6424907000
H        3.4295630000   -1.1423581000   -0.4752657000
H        1.8586780000   -1.8669711000   -0.9763920000
H        3.4085067000    1.1434551000    0.4976203000
H        1.8232528000    1.8497451000    0.9790909000
18   
Iteration 1 Energy -376.54167953
C        0.1628629573   -0.0021169475   -0.0150288123
C       -0.5524081814   -1.2038953262    0.3083869661
C       -1.9706703578   -1.1933988014    0.3222873328
C       -2.6776815913    0.0036888999    0.0047394192
C       -1.9663029181    1.1967838314   -0.3198671262
C       -0.5481137067    1.2067114545   -0.3204819365
C        1.6729640668   -0.0034407109   -0.0043384898
N        2.3724770300   -1.0950011387   -0.4804074189
N        2.3669644195    1.0937624492    0.4667574047
H       -0.0023074605   -2.1275046424    0.5745136121
H       -2.5253638976   -2.1150795636    0.5855896917
H       -3.7861102569    0.0070950999    0.0105270347
H       -2.5205826935    2.1210836866   -0.5746171713
H        0.0023581853    2.1276861488   -0.5947759247
H        3.4212044266   -1.1723724897   -0.4229212396
H        1.8445690333   -1.9075454702   -0.8881232177
H        3.4181652947    1.1543864374    0.4506440615
H        1.8382690769    1.8893172149    0.9055907386
18   
Iteration 2 Energy -376.54189900
C        0.1632844035   -0.0064535027   -0.0055521434
C       -0.5525831280   -1.2159138124    0.2884309025
C       -1.9704275598   -1.1955224955    0.2962033486
C       -2.6794305109    0.0070511816    0.0027754678
C       -1.9710357164    1.2084194989   -0.2956093082
C       -0.5531209815    1.2051491618   -0.2913225235
C        1.6723439747   -0.0061871744   -0.0016529725
N        2.3756582368   -1.1111200972   -0.4403983671
N        2.3673450225    1.1080880343    0.4270415049
H       -0.0082512529   -2.1465632112    0.5416786513
H       -2.5280693750   -2.1211934944    0.5381663433
H       -3.7879169052    0.0083401413    0.0065440395
H       -2.5220866233    2.1392315375   -0.5335196249
H       -0.0015380715    2.1304184260   -0.5479484856
H        3.4249324970   -1.1752431130   -0.3826120545
H        1.8548208011   -1.9370179388   -0.8290499462
H        3.4181390639    1.1666340346    0.4002141802
H        1.8420076925    1.9212626614    0.8358276489
18   
Iteration 3 Energy -376.54210521
C        0.1627914460    0.0014916796    0.0052026590
C       -0.5553078423   -1.2176096041    0.2563714291
C       -1.9728085502   -1.2103267733    0.2606590201
C       -2.6798407740    0.0010610197    0.0003602233
C       -1.9675973244    1.2096349741   -0.2595248193
C       -0.5501098215    1.2215017805   -0.2546097482
C        1.6702351013   -0.0020640207   -0.0001765228
N        2.3669590185   -1.1330657033   -0.3803124499
N        2.3741778681    1.1277325140    0.3718185904
H       -0.0106441823   -2.1534434604    0.4883961543
H       -2.5277081844   -2.1452196985    0.4718530841
H       -3.7884252567    0.0028249730   -0.0012100118
H       -2.5217984756    2.1442033284   -0.4736318120
H       -0.0038491595    2.1561633517   -0.4882100058
H        3.4160840014   -1.1957595933   -0.3255839681
H        1.8442105279   -1.9717603499   -0.7364156326
H        3.4247262452    1.1785568317    0.3347064495
H        1.8570956264    1.9646686227    0.7401105987
18   
Iteration 4 Energy -376.54212357
C        0.1647475992   -0.0017131969    0.0017403698
C       -0.5602872582   -1.2168568140    0.2536513524
C       -1.9778186659   -1.2082590478    0.2577530225
C       -2.6858420798    0.0030293548    0.0002180494
C       -1.9720365173    1.2111596751   -0.2562485757
C       -0.5544629682    1.2165984819   -0.2515730757
C        1.6724962754   -0.0051886114    0.0009332474
N        2.3780652970   -1.1334384190   -0.3724983043
N        2.3766280945    1.1269752018    0.3657661366
H       -0.0197208380   -2.1544747263    0.4878810225
H       -2.5329429058   -2.1433281518    0.4675330117
H       -3.7944343078    0.0054295637   -0.0004873711
H       -2.5237600183    2.1480204943   -0.4669205327
H       -0.0101276621    2.1525420092   -0.4837615560
H        3.4277143779   -1.1922175540   -0.3240497591
H        1.8602337167   -1.9740285060   -0.7307960592
H        3.4269868735    1.1798114723    0.3269711257
H        1.8600742166    1.9643259285    0.7334449086
18   
Iteration 5 Energy -376.54214429
C        0.1622016029   -0.0027067591   -0.0014749157
C       -0.5564265737   -1.2212808508    0.2527491184
C       -1.9737561854   -1.2079547797    0.2558551271
C       -2.6825062850    0.0031930018   -0.0007215069
C       -1.9723068732    1.2135626130   -0.2562502329
C       -0.5549332345    1.2179197276   -0.2517475516
C        1.6691945700   -0.0035642214    0.0021409845
N        2.3720643623   -1.1352860524   -0.3668640472
N        2.3754523137    1.1286800664    0.3635150041
H       -0.0153637897   -2.1586887740    0.4874439385
H       -2.5298125094   -2.1425548521    0.4649618292
H       -3.7910891236    0.0040855095   -0.0006304746
H       -2.5248228082    2.1504448495   -0.4648148972
H       -0.0106550551    2.1541002422   -0.4832263115
H        3.4221058179   -1.1900679270   -0.3227997180
H        1.8550245266   -1.9760192466   -0.7262048748
H        3.4259926733    1.1769559858    0.3241170201
H        1.8626219043    1.9674492580    0.7332282156
18   
Iteration 6 Energy -376.54215135
C        0.1624008040   -0.0021893566   -0.0019676122
C       -0.5579499001   -1.2194504765    0.2530190995
C       -1.9754226456   -1.2086714157    0.2574075022
C       -2.6830847450    0.0029536342    0.0001572988
C       -1.9713562616    1.2123055912   -0.2567504950
C       -0.5538602441    1.2182803418   -0.2529428277
C        1.6693180463   -0.0041683979    0.0012503935
N        2.3725134679   -1.1359353318   -0.3670540243
N        2.3743997507    1.1283701043    0.3635681956
H       -0.0163082097   -2.1566505453    0.4867599291
H       -2.5310661447   -2.1432966543    0.4676776131
H       -3.7916707358    0.0048848290    0.0005393801
H       -2.5238767731    2.1490772137   -0.4657047278
H       -0.0090552435    2.1540083555   -0.4851688809
H        3.4227285455   -1.1868590990   -0.3226467694
H        1.8574458451   -1.9763913050   -0.7299800708
H        3.4250840491    1.1754356638    0.3269585544
H        1.8611713093    1.9666744685    0.7340037340
18   
Iteration 7 Energy -376.54215395
C        0.1624482826   -0.0018816769   -0.0026226356
C       -0.5579657678   -1.2188136461    0.2535104360
C       -1.9754816515   -1.2084074883    0.2586450098
C       -2.6835303965    0.0028397606    0.0007123500
C       -1.9709134626    1.2114027606   -0.2576846789
C       -0.5533839825    1.2184898188   -0.2544578340
C        1.6693160571   -0.0041127337    0.0010296148
N        2.3726128377   -1.1363264400   -0.3658043393
N        2.3737997238    1.1286864809    0.3636499320
H       -0.0158369064   -2.1558173340    0.4867534993
H       -2.5308172538   -2.1429373606    0.4701484954
H       -3.7921283963    0.0050206631    0.0014557812
H       -2.5235264633    2.1479678263   -0.4672311037
H       -0.0083967452    2.1538592267   -0.4877622007
H        3.4228231357   -1.1907910316   -0.3254168965
H        1.8558195496   -1.9738276479   -0.7330039308
H        3.4245544040    1.1778089482    0.3313206795
H        1.8589041241    1.9652626463    0.7356772837
18   
Iteration 8 Energy -376.54215696
C        0.1621833944   -0.0019354509   -0.0034181866
C       -0.5582912298   -1.2186607641    0.2539500966
C       -1.9757593066   -1.2085673875    0.2594267164
C       -2.6832480116    0.0028524907    0.0008422561
C       -1.9717211700    1.2117852123   -0.2586429965
C       -0.5542398383    1.2181826559   -0.2556320242
C        1.6691130301   -0.0039266653    0.0012825674
N        2.3720296410   -1.1369838674   -0.3636011838
N        2.3739045594    1.1289874299    0.3630919560
H       -0.0160175354   -2.1554642055    0.4876690857
H       -2.5311482441   -2.1428868413    0.4717563097
H       -3.7918312840    0.0048924956    0.0018782422
H       -2.5245443831    2.1481497227   -0.4686113107
H       -0.0094156908    2.1533749336   -0.4899053640
H        3.4224708157   -1.1894449589   -0.3267043949
H        1.8558263565   -1.9728485901   -0.7353561600
H        3.4248428322    1.1758934665    0.3329843326
H        1.8599355146    1.9649697679    0.7377127298
18   
Iteration 9 Energy -376.54215654
C        0.1613741841   -0.0029434406   -0.0043532035
C       -0.5591649234   -1.2191731424    0.2555057569
C       -1.9765892466   -1.2066799064    0.2610086285
C       -2.6854346317    0.0036665096    0.0012183272
C       -1.9726093573    1.2113600507   -0.2600644961
C       -0.5551557290    1.2171060100   -0.2575835220
C        1.6683514185   -0.0049438443    0.0012729153
N        2.3726205681   -1.1382370869   -0.3602663997
N        2.3726995446    1.1287955171    0.3614049811
H       -0.0175807300   -2.1560276563    0.4907897128
H       -2.5322415261   -2.1404324426    0.4749805475
H       -3.7940363424    0.0058833996    0.0027652265
H       -2.5248193085    2.1478201644   -0.4711660603
H       -0.0102847827    2.1518555005   -0.4934972753
H        3.4236344296   -1.1827748348   -0.3291615159
H        1.8600290197   -1.9723613970   -0.7409565980
H        3.4239160903    1.1722133225    0.3352836984
H        1.8597655613    1.9631148936    0.7412065926
