
Host: aaojha

Timers On : Fri May 14 10:21:44 2021
Timers Off: Fri May 14 10:21:53 2021

Wall Time:        9.56 seconds

                                                       Time (seconds)
Module                                       User      System        Wall        Calls
V: Grid                             :      1.250u      0.017s      0.759w      1 calls
DFH: sparsity prep                  :      0.017u      0.000s      0.013w      1 calls
DFH: initialize()                   :      0.633u      0.000s      0.392w      1 calls
DFH: AO Construction                :      0.267u      0.000s      0.156w      1 calls
DFH: AO-Met. Contraction            :      0.067u      0.000s      0.047w      1 calls
HF: Form core H                     :      0.000u      0.000s      0.002w      1 calls
HF: Form S/X                        :      0.000u      0.000s      0.000w      1 calls
HF: Guess                           :      0.250u      0.000s      0.154w      1 calls
SAD Guess                           :      0.233u      0.000s      0.147w      1 calls
HF: Form G                          :      8.417u      0.067s      5.087w     14 calls
RV: Form V                          :      8.367u      0.067s      5.067w     14 calls
Properties                          :      2.333u      0.017s      1.512w  44835 calls
Functional                          :      4.533u      0.033s      2.697w  44835 calls
V_xc                                :      2.233u      0.033s      1.329w  41846 calls
JK: D                               :      0.000u      0.000s      0.000w     14 calls
JK: USO2AO                          :      0.000u      0.000s      0.000w     14 calls
JK: JK                              :      0.033u      0.000s      0.020w     14 calls
DFH: compute_JK()                   :      0.033u      0.000s      0.020w     14 calls
DFH: Grabbing AOs                   :      0.000u      0.000s      0.000w     14 calls
DFH: compute_J                      :      0.033u      0.000s      0.019w     14 calls
JK: AO2USO                          :      0.000u      0.000s      0.000w     14 calls
HF: Form F                          :      0.000u      0.000s      0.000w     14 calls
HF: Form D                          :      0.000u      0.000s      0.000w     14 calls
HF: DIIS                            :      0.000u      0.000s      0.006w     13 calls
DIISManager::add_entry              :      0.000u      0.000s      0.001w     13 calls
DIISManager::extrapolate            :      0.000u      0.000s      0.001w     13 calls
bMatrix setup                       :      0.000u      0.000s      0.001w     13 calls
bMatrix pseudoinverse               :      0.000u      0.000s      0.000w     13 calls
New vector                          :      0.000u      0.000s      0.000w     13 calls
HF: Form C                          :      0.000u      0.000s      0.003w     13 calls
Grad: V T Perturb                   :      0.083u      0.000s      0.050w      1 calls
Grad: S                             :      0.000u      0.000s      0.001w      1 calls
Grad: JK                            :      1.850u      0.000s      1.114w      1 calls
JKGrad: Amn                         :      0.283u      0.000s      0.170w      1 calls
JKGrad: Awmn                        :      0.000u      0.000s      0.000w      1 calls
JKGrad: AB                          :      0.283u      0.000s      0.165w      1 calls
JKGrad: UV                          :      0.000u      0.000s      0.000w      1 calls
JKGrad: ABx                         :      0.117u      0.000s      0.075w      1 calls
JKGrad: Amnx                        :      1.150u      0.000s      0.689w      1 calls
Grad: XC                            :      1.383u      0.017s      0.838w      1 calls
V_xc gradient                       :      0.483u      0.000s      0.301w   2989 calls

--------------------------------------------------------------------------------------
V: Grid                             :      1.250u      0.017s      0.759w      1 calls
DFH: sparsity prep                  :      0.017u      0.000s      0.013w      1 calls
DFH: initialize()                   :      0.633u      0.000s      0.392w      1 calls
| DFH: AO Construction              :      0.267u      0.000s      0.156w      1 calls
| DFH: AO-Met. Contraction          :      0.067u      0.000s      0.047w      1 calls
HF: Form core H                     :      0.000u      0.000s      0.002w      1 calls
HF: Form S/X                        :      0.000u      0.000s      0.000w      1 calls
HF: Guess                           :      0.250u      0.000s      0.154w      1 calls
| SAD Guess                         :      0.233u      0.000s      0.147w      1 calls
HF: Form G                          :      8.417u      0.067s      5.087w     14 calls
| RV: Form V                        :      8.367u      0.067s      5.067w     14 calls
| | Properties                      :      1.733u      0.000s      1.161w  41846 calls
| | Functional                      :      4.233u      0.033s      2.518w  41846 calls
| | V_xc                            :      2.233u      0.033s      1.329w  41846 calls
| JK: D                             :      0.000u      0.000s      0.000w     14 calls
| JK: USO2AO                        :      0.000u      0.000s      0.000w     14 calls
| JK: JK                            :      0.033u      0.000s      0.020w     14 calls
| | DFH: compute_JK()               :      0.033u      0.000s      0.020w     14 calls
| | | DFH: Grabbing AOs             :      0.000u      0.000s      0.000w     14 calls
| | | DFH: compute_J                :      0.033u      0.000s      0.019w     14 calls
| JK: AO2USO                        :      0.000u      0.000s      0.000w     14 calls
HF: Form F                          :      0.000u      0.000s      0.000w     14 calls
HF: Form D                          :      0.000u      0.000s      0.000w     14 calls
HF: DIIS                            :      0.000u      0.000s      0.006w     13 calls
| DIISManager::add_entry            :      0.000u      0.000s      0.001w     13 calls
| DIISManager::extrapolate          :      0.000u      0.000s      0.001w     13 calls
| | bMatrix setup                   :      0.000u      0.000s      0.001w     13 calls
| | bMatrix pseudoinverse           :      0.000u      0.000s      0.000w     13 calls
| | New vector                      :      0.000u      0.000s      0.000w     13 calls
HF: Form C                          :      0.000u      0.000s      0.003w     13 calls
Grad: V T Perturb                   :      0.083u      0.000s      0.050w      1 calls
Grad: S                             :      0.000u      0.000s      0.001w      1 calls
Grad: JK                            :      1.850u      0.000s      1.114w      1 calls
| JKGrad: Amn                       :      0.283u      0.000s      0.170w      1 calls
| JKGrad: Awmn                      :      0.000u      0.000s      0.000w      1 calls
| JKGrad: AB                        :      0.283u      0.000s      0.165w      1 calls
| JKGrad: UV                        :      0.000u      0.000s      0.000w      1 calls
| JKGrad: ABx                       :      0.117u      0.000s      0.075w      1 calls
| JKGrad: Amnx                      :      1.150u      0.000s      0.689w      1 calls
Grad: XC                            :      1.383u      0.017s      0.838w      1 calls
| Properties                        :      0.600u      0.017s      0.351w   2989 calls
| Functional                        :      0.300u      0.000s      0.180w   2989 calls
| V_xc gradient                     :      0.483u      0.000s      0.301w   2989 calls

**************************************************************************************

Host: aaojha

Timers On : Fri May 14 10:21:53 2021
Timers Off: Fri May 14 10:22:03 2021

Wall Time:        9.57 seconds

                                                       Time (seconds)
Module                                       User      System        Wall        Calls
V: Grid                             :      1.217u      0.000s      0.739w      1 calls
DFH: sparsity prep                  :      0.017u      0.000s      0.013w      1 calls
DFH: initialize()                   :      0.633u      0.017s      0.388w      1 calls
DFH: AO Construction                :      0.250u      0.000s      0.158w      1 calls
DFH: AO-Met. Contraction            :      0.083u      0.000s      0.046w      1 calls
HF: Form core H                     :      0.000u      0.000s      0.002w      1 calls
HF: Form S/X                        :      0.000u      0.000s      0.000w      1 calls
HF: Guess                           :      0.250u      0.000s      0.154w      1 calls
SAD Guess                           :      0.250u      0.000s      0.147w      1 calls
HF: Form G                          :      8.400u      0.100s      5.093w     14 calls
RV: Form V                          :      8.367u      0.100s      5.072w     14 calls
Properties                          :      2.633u      0.017s      1.533w  44850 calls
Functional                          :      4.350u      0.050s      2.690w  44850 calls
V_xc                                :      2.200u      0.033s      1.336w  41860 calls
JK: D                               :      0.000u      0.000s      0.000w     14 calls
JK: USO2AO                          :      0.000u      0.000s      0.000w     14 calls
JK: JK                              :      0.033u      0.000s      0.020w     14 calls
DFH: compute_JK()                   :      0.033u      0.000s      0.020w     14 calls
DFH: Grabbing AOs                   :      0.000u      0.000s      0.000w     14 calls
DFH: compute_J                      :      0.033u      0.000s      0.020w     14 calls
JK: AO2USO                          :      0.000u      0.000s      0.000w     14 calls
HF: Form F                          :      0.000u      0.000s      0.000w     14 calls
HF: Form D                          :      0.000u      0.000s      0.000w     14 calls
HF: DIIS                            :      0.000u      0.000s      0.006w     13 calls
DIISManager::add_entry              :      0.000u      0.000s      0.001w     13 calls
DIISManager::extrapolate            :      0.000u      0.000s      0.001w     13 calls
bMatrix setup                       :      0.000u      0.000s      0.001w     13 calls
bMatrix pseudoinverse               :      0.000u      0.000s      0.000w     13 calls
New vector                          :      0.000u      0.000s      0.000w     13 calls
HF: Form C                          :      0.000u      0.000s      0.003w     13 calls
Grad: V T Perturb                   :      0.083u      0.000s      0.052w      1 calls
Grad: S                             :      0.000u      0.000s      0.001w      1 calls
Grad: JK                            :      1.883u      0.000s      1.124w      1 calls
JKGrad: Amn                         :      0.283u      0.000s      0.174w      1 calls
JKGrad: Awmn                        :      0.000u      0.000s      0.000w      1 calls
JKGrad: AB                          :      0.283u      0.000s      0.167w      1 calls
JKGrad: UV                          :      0.000u      0.000s      0.000w      1 calls
JKGrad: ABx                         :      0.117u      0.000s      0.074w      1 calls
JKGrad: Amnx                        :      1.167u      0.000s      0.695w      1 calls
Grad: XC                            :      1.433u      0.000s      0.862w      1 calls
V_xc gradient                       :      0.500u      0.000s      0.310w   2990 calls

--------------------------------------------------------------------------------------
V: Grid                             :      1.217u      0.000s      0.739w      1 calls
DFH: sparsity prep                  :      0.017u      0.000s      0.013w      1 calls
DFH: initialize()                   :      0.633u      0.017s      0.388w      1 calls
| DFH: AO Construction              :      0.250u      0.000s      0.158w      1 calls
| DFH: AO-Met. Contraction          :      0.083u      0.000s      0.046w      1 calls
HF: Form core H                     :      0.000u      0.000s      0.002w      1 calls
HF: Form S/X                        :      0.000u      0.000s      0.000w      1 calls
HF: Guess                           :      0.250u      0.000s      0.154w      1 calls
| SAD Guess                         :      0.250u      0.000s      0.147w      1 calls
HF: Form G                          :      8.400u      0.100s      5.093w     14 calls
| RV: Form V                        :      8.367u      0.100s      5.072w     14 calls
| | Properties                      :      2.067u      0.017s      1.171w  41860 calls
| | Functional                      :      4.000u      0.050s      2.504w  41860 calls
| | V_xc                            :      2.200u      0.033s      1.336w  41860 calls
| JK: D                             :      0.000u      0.000s      0.000w     14 calls
| JK: USO2AO                        :      0.000u      0.000s      0.000w     14 calls
| JK: JK                            :      0.033u      0.000s      0.020w     14 calls
| | DFH: compute_JK()               :      0.033u      0.000s      0.020w     14 calls
| | | DFH: Grabbing AOs             :      0.000u      0.000s      0.000w     14 calls
| | | DFH: compute_J                :      0.033u      0.000s      0.020w     14 calls
| JK: AO2USO                        :      0.000u      0.000s      0.000w     14 calls
HF: Form F                          :      0.000u      0.000s      0.000w     14 calls
HF: Form D                          :      0.000u      0.000s      0.000w     14 calls
HF: DIIS                            :      0.000u      0.000s      0.006w     13 calls
| DIISManager::add_entry            :      0.000u      0.000s      0.001w     13 calls
| DIISManager::extrapolate          :      0.000u      0.000s      0.001w     13 calls
| | bMatrix setup                   :      0.000u      0.000s      0.001w     13 calls
| | bMatrix pseudoinverse           :      0.000u      0.000s      0.000w     13 calls
| | New vector                      :      0.000u      0.000s      0.000w     13 calls
HF: Form C                          :      0.000u      0.000s      0.003w     13 calls
Grad: V T Perturb                   :      0.083u      0.000s      0.052w      1 calls
Grad: S                             :      0.000u      0.000s      0.001w      1 calls
Grad: JK                            :      1.883u      0.000s      1.124w      1 calls
| JKGrad: Amn                       :      0.283u      0.000s      0.174w      1 calls
| JKGrad: Awmn                      :      0.000u      0.000s      0.000w      1 calls
| JKGrad: AB                        :      0.283u      0.000s      0.167w      1 calls
| JKGrad: UV                        :      0.000u      0.000s      0.000w      1 calls
| JKGrad: ABx                       :      0.117u      0.000s      0.074w      1 calls
| JKGrad: Amnx                      :      1.167u      0.000s      0.695w      1 calls
Grad: XC                            :      1.433u      0.000s      0.862w      1 calls
| Properties                        :      0.567u      0.000s      0.362w   2990 calls
| Functional                        :      0.350u      0.000s      0.186w   2990 calls
| V_xc gradient                     :      0.500u      0.000s      0.310w   2990 calls

**************************************************************************************

Host: aaojha

Timers On : Fri May 14 10:22:03 2021
Timers Off: Fri May 14 10:22:12 2021

Wall Time:        9.43 seconds

                                                       Time (seconds)
Module                                       User      System        Wall        Calls
V: Grid                             :      1.217u      0.017s      0.736w      1 calls
DFH: sparsity prep                  :      0.033u      0.000s      0.013w      1 calls
DFH: initialize()                   :      0.650u      0.033s      0.407w      1 calls
DFH: AO Construction                :      0.267u      0.000s      0.164w      1 calls
DFH: AO-Met. Contraction            :      0.083u      0.000s      0.048w      1 calls
HF: Form core H                     :      0.000u      0.000s      0.002w      1 calls
HF: Form S/X                        :      0.000u      0.000s      0.000w      1 calls
HF: Guess                           :      0.250u      0.000s      0.153w      1 calls
SAD Guess                           :      0.233u      0.000s      0.146w      1 calls
HF: Form G                          :      8.167u      0.133s      4.967w     14 calls
RV: Form V                          :      8.117u      0.133s      4.947w     14 calls
Properties                          :      2.400u      0.033s      1.482w  44955 calls
Functional                          :      4.000u      0.067s      2.626w  44955 calls
V_xc                                :      2.417u      0.033s      1.305w  41958 calls
JK: D                               :      0.000u      0.000s      0.000w     14 calls
JK: USO2AO                          :      0.000u      0.000s      0.000w     14 calls
JK: JK                              :      0.050u      0.000s      0.020w     14 calls
DFH: compute_JK()                   :      0.050u      0.000s      0.019w     14 calls
DFH: Grabbing AOs                   :      0.000u      0.000s      0.000w     14 calls
DFH: compute_J                      :      0.050u      0.000s      0.019w     14 calls
JK: AO2USO                          :      0.000u      0.000s      0.000w     14 calls
HF: Form F                          :      0.000u      0.000s      0.000w     14 calls
HF: Form D                          :      0.000u      0.000s      0.000w     14 calls
HF: DIIS                            :      0.017u      0.000s      0.006w     13 calls
DIISManager::add_entry              :      0.000u      0.000s      0.001w     13 calls
DIISManager::extrapolate            :      0.000u      0.000s      0.001w     13 calls
bMatrix setup                       :      0.000u      0.000s      0.001w     13 calls
bMatrix pseudoinverse               :      0.000u      0.000s      0.000w     13 calls
New vector                          :      0.000u      0.000s      0.000w     13 calls
HF: Form C                          :      0.000u      0.000s      0.003w     13 calls
Grad: V T Perturb                   :      0.083u      0.000s      0.050w      1 calls
Grad: S                             :      0.000u      0.000s      0.001w      1 calls
Grad: JK                            :      1.850u      0.000s      1.125w      1 calls
JKGrad: Amn                         :      0.300u      0.000s      0.173w      1 calls
JKGrad: Awmn                        :      0.000u      0.000s      0.000w      1 calls
JKGrad: AB                          :      0.267u      0.000s      0.166w      1 calls
JKGrad: UV                          :      0.000u      0.000s      0.000w      1 calls
JKGrad: ABx                         :      0.117u      0.000s      0.073w      1 calls
JKGrad: Amnx                        :      1.150u      0.000s      0.681w      1 calls
Grad: XC                            :      1.350u      0.033s      0.826w      1 calls
V_xc gradient                       :      0.517u      0.033s      0.296w   2997 calls

--------------------------------------------------------------------------------------
V: Grid                             :      1.217u      0.017s      0.736w      1 calls
DFH: sparsity prep                  :      0.033u      0.000s      0.013w      1 calls
DFH: initialize()                   :      0.650u      0.033s      0.407w      1 calls
| DFH: AO Construction              :      0.267u      0.000s      0.164w      1 calls
| DFH: AO-Met. Contraction          :      0.083u      0.000s      0.048w      1 calls
HF: Form core H                     :      0.000u      0.000s      0.002w      1 calls
HF: Form S/X                        :      0.000u      0.000s      0.000w      1 calls
HF: Guess                           :      0.250u      0.000s      0.153w      1 calls
| SAD Guess                         :      0.233u      0.000s      0.146w      1 calls
HF: Form G                          :      8.167u      0.133s      4.967w     14 calls
| RV: Form V                        :      8.117u      0.133s      4.947w     14 calls
| | Properties                      :      1.850u      0.033s      1.132w  41958 calls
| | Functional                      :      3.717u      0.067s      2.451w  41958 calls
| | V_xc                            :      2.417u      0.033s      1.305w  41958 calls
| JK: D                             :      0.000u      0.000s      0.000w     14 calls
| JK: USO2AO                        :      0.000u      0.000s      0.000w     14 calls
| JK: JK                            :      0.050u      0.000s      0.020w     14 calls
| | DFH: compute_JK()               :      0.050u      0.000s      0.019w     14 calls
| | | DFH: Grabbing AOs             :      0.000u      0.000s      0.000w     14 calls
| | | DFH: compute_J                :      0.050u      0.000s      0.019w     14 calls
| JK: AO2USO                        :      0.000u      0.000s      0.000w     14 calls
HF: Form F                          :      0.000u      0.000s      0.000w     14 calls
HF: Form D                          :      0.000u      0.000s      0.000w     14 calls
HF: DIIS                            :      0.017u      0.000s      0.006w     13 calls
| DIISManager::add_entry            :      0.000u      0.000s      0.001w     13 calls
| DIISManager::extrapolate          :      0.000u      0.000s      0.001w     13 calls
| | bMatrix setup                   :      0.000u      0.000s      0.001w     13 calls
| | bMatrix pseudoinverse           :      0.000u      0.000s      0.000w     13 calls
| | New vector                      :      0.000u      0.000s      0.000w     13 calls
HF: Form C                          :      0.000u      0.000s      0.003w     13 calls
Grad: V T Perturb                   :      0.083u      0.000s      0.050w      1 calls
Grad: S                             :      0.000u      0.000s      0.001w      1 calls
Grad: JK                            :      1.850u      0.000s      1.125w      1 calls
| JKGrad: Amn                       :      0.300u      0.000s      0.173w      1 calls
| JKGrad: Awmn                      :      0.000u      0.000s      0.000w      1 calls
| JKGrad: AB                        :      0.267u      0.000s      0.166w      1 calls
| JKGrad: UV                        :      0.000u      0.000s      0.000w      1 calls
| JKGrad: ABx                       :      0.117u      0.000s      0.073w      1 calls
| JKGrad: Amnx                      :      1.150u      0.000s      0.681w      1 calls
Grad: XC                            :      1.350u      0.033s      0.826w      1 calls
| Properties                        :      0.550u      0.000s      0.350w   2997 calls
| Functional                        :      0.283u      0.000s      0.175w   2997 calls
| V_xc gradient                     :      0.517u      0.033s      0.296w   2997 calls

**************************************************************************************

Host: aaojha

Timers On : Fri May 14 10:22:13 2021
Timers Off: Fri May 14 10:22:22 2021

Wall Time:        9.41 seconds

                                                       Time (seconds)
Module                                       User      System        Wall        Calls
V: Grid                             :      1.217u      0.000s      0.733w      1 calls
DFH: sparsity prep                  :      0.017u      0.000s      0.012w      1 calls
DFH: initialize()                   :      0.617u      0.033s      0.390w      1 calls
DFH: AO Construction                :      0.267u      0.017s      0.156w      1 calls
DFH: AO-Met. Contraction            :      0.050u      0.017s      0.045w      1 calls
HF: Form core H                     :      0.000u      0.000s      0.002w      1 calls
HF: Form S/X                        :      0.000u      0.000s      0.000w      1 calls
HF: Guess                           :      0.250u      0.000s      0.154w      1 calls
SAD Guess                           :      0.233u      0.000s      0.147w      1 calls
HF: Form G                          :      8.117u      0.167s      4.968w     14 calls
RV: Form V                          :      8.100u      0.167s      4.948w     14 calls
Properties                          :      2.483u      0.050s      1.487w  44775 calls
Functional                          :      4.133u      0.050s      2.618w  44775 calls
V_xc                                :      2.217u      0.067s      1.307w  41790 calls
JK: D                               :      0.000u      0.000s      0.000w     14 calls
JK: USO2AO                          :      0.000u      0.000s      0.000w     14 calls
JK: JK                              :      0.000u      0.000s      0.019w     14 calls
DFH: compute_JK()                   :      0.000u      0.000s      0.019w     14 calls
DFH: Grabbing AOs                   :      0.000u      0.000s      0.000w     14 calls
DFH: compute_J                      :      0.000u      0.000s      0.019w     14 calls
JK: AO2USO                          :      0.000u      0.000s      0.000w     14 calls
HF: Form F                          :      0.000u      0.000s      0.000w     14 calls
HF: Form D                          :      0.000u      0.000s      0.000w     14 calls
HF: DIIS                            :      0.017u      0.000s      0.015w     13 calls
DIISManager::add_entry              :      0.000u      0.000s      0.001w     13 calls
DIISManager::extrapolate            :      0.000u      0.000s      0.011w     13 calls
bMatrix setup                       :      0.000u      0.000s      0.010w     13 calls
bMatrix pseudoinverse               :      0.000u      0.000s      0.000w     13 calls
New vector                          :      0.000u      0.000s      0.000w     13 calls
HF: Form C                          :      0.000u      0.000s      0.003w     13 calls
Grad: V T Perturb                   :      0.083u      0.000s      0.050w      1 calls
Grad: S                             :      0.000u      0.000s      0.001w      1 calls
Grad: JK                            :      1.850u      0.017s      1.121w      1 calls
JKGrad: Amn                         :      0.283u      0.000s      0.171w      1 calls
JKGrad: Awmn                        :      0.000u      0.000s      0.000w      1 calls
JKGrad: AB                          :      0.267u      0.000s      0.166w      1 calls
JKGrad: UV                          :      0.000u      0.000s      0.000w      1 calls
JKGrad: ABx                         :      0.133u      0.000s      0.074w      1 calls
JKGrad: Amnx                        :      1.150u      0.000s      0.687w      1 calls
Grad: XC                            :      1.350u      0.017s      0.824w      1 calls
V_xc gradient                       :      0.467u      0.000s      0.296w   2985 calls

--------------------------------------------------------------------------------------
V: Grid                             :      1.217u      0.000s      0.733w      1 calls
DFH: sparsity prep                  :      0.017u      0.000s      0.012w      1 calls
DFH: initialize()                   :      0.617u      0.033s      0.390w      1 calls
| DFH: AO Construction              :      0.267u      0.017s      0.156w      1 calls
| DFH: AO-Met. Contraction          :      0.050u      0.017s      0.045w      1 calls
HF: Form core H                     :      0.000u      0.000s      0.002w      1 calls
HF: Form S/X                        :      0.000u      0.000s      0.000w      1 calls
HF: Guess                           :      0.250u      0.000s      0.154w      1 calls
| SAD Guess                         :      0.233u      0.000s      0.147w      1 calls
HF: Form G                          :      8.117u      0.167s      4.968w     14 calls
| RV: Form V                        :      8.100u      0.167s      4.948w     14 calls
| | Properties                      :      1.900u      0.033s      1.140w  41790 calls
| | Functional                      :      3.833u      0.050s      2.442w  41790 calls
| | V_xc                            :      2.217u      0.067s      1.307w  41790 calls
| JK: D                             :      0.000u      0.000s      0.000w     14 calls
| JK: USO2AO                        :      0.000u      0.000s      0.000w     14 calls
| JK: JK                            :      0.000u      0.000s      0.019w     14 calls
| | DFH: compute_JK()               :      0.000u      0.000s      0.019w     14 calls
| | | DFH: Grabbing AOs             :      0.000u      0.000s      0.000w     14 calls
| | | DFH: compute_J                :      0.000u      0.000s      0.019w     14 calls
| JK: AO2USO                        :      0.000u      0.000s      0.000w     14 calls
HF: Form F                          :      0.000u      0.000s      0.000w     14 calls
HF: Form D                          :      0.000u      0.000s      0.000w     14 calls
HF: DIIS                            :      0.017u      0.000s      0.015w     13 calls
| DIISManager::add_entry            :      0.000u      0.000s      0.001w     13 calls
| DIISManager::extrapolate          :      0.000u      0.000s      0.011w     13 calls
| | bMatrix setup                   :      0.000u      0.000s      0.010w     13 calls
| | bMatrix pseudoinverse           :      0.000u      0.000s      0.000w     13 calls
| | New vector                      :      0.000u      0.000s      0.000w     13 calls
HF: Form C                          :      0.000u      0.000s      0.003w     13 calls
Grad: V T Perturb                   :      0.083u      0.000s      0.050w      1 calls
Grad: S                             :      0.000u      0.000s      0.001w      1 calls
Grad: JK                            :      1.850u      0.017s      1.121w      1 calls
| JKGrad: Amn                       :      0.283u      0.000s      0.171w      1 calls
| JKGrad: Awmn                      :      0.000u      0.000s      0.000w      1 calls
| JKGrad: AB                        :      0.267u      0.000s      0.166w      1 calls
| JKGrad: UV                        :      0.000u      0.000s      0.000w      1 calls
| JKGrad: ABx                       :      0.133u      0.000s      0.074w      1 calls
| JKGrad: Amnx                      :      1.150u      0.000s      0.687w      1 calls
Grad: XC                            :      1.350u      0.017s      0.824w      1 calls
| Properties                        :      0.583u      0.017s      0.347w   2985 calls
| Functional                        :      0.300u      0.000s      0.175w   2985 calls
| V_xc gradient                     :      0.467u      0.000s      0.296w   2985 calls

**************************************************************************************

Host: aaojha

Timers On : Fri May 14 10:22:22 2021
Timers Off: Fri May 14 10:22:32 2021

Wall Time:        9.88 seconds

                                                       Time (seconds)
Module                                       User      System        Wall        Calls
V: Grid                             :      1.200u      0.000s      0.729w      1 calls
DFH: sparsity prep                  :      0.017u      0.000s      0.012w      1 calls
DFH: initialize()                   :      0.617u      0.017s      0.385w      1 calls
DFH: AO Construction                :      0.250u      0.000s      0.154w      1 calls
DFH: AO-Met. Contraction            :      0.067u      0.000s      0.045w      1 calls
HF: Form core H                     :      0.000u      0.000s      0.002w      1 calls
HF: Form S/X                        :      0.000u      0.000s      0.000w      1 calls
HF: Guess                           :      0.267u      0.000s      0.154w      1 calls
SAD Guess                           :      0.250u      0.000s      0.147w      1 calls
HF: Form G                          :      8.883u      0.117s      5.397w     15 calls
RV: Form V                          :      8.833u      0.117s      5.375w     15 calls
Properties                          :      2.550u      0.000s      1.586w  47600 calls
Functional                          :      4.550u      0.083s      2.842w  47600 calls
V_xc                                :      2.433u      0.033s      1.417w  44625 calls
JK: D                               :      0.000u      0.000s      0.000w     15 calls
JK: USO2AO                          :      0.000u      0.000s      0.000w     15 calls
JK: JK                              :      0.050u      0.000s      0.021w     15 calls
DFH: compute_JK()                   :      0.050u      0.000s      0.021w     15 calls
DFH: Grabbing AOs                   :      0.000u      0.000s      0.000w     15 calls
DFH: compute_J                      :      0.050u      0.000s      0.021w     15 calls
JK: AO2USO                          :      0.000u      0.000s      0.000w     15 calls
HF: Form F                          :      0.000u      0.000s      0.000w     15 calls
HF: Form D                          :      0.000u      0.000s      0.000w     15 calls
HF: DIIS                            :      0.017u      0.000s      0.007w     14 calls
DIISManager::add_entry              :      0.000u      0.000s      0.001w     14 calls
DIISManager::extrapolate            :      0.017u      0.000s      0.002w     14 calls
bMatrix setup                       :      0.000u      0.000s      0.001w     14 calls
bMatrix pseudoinverse               :      0.000u      0.000s      0.001w     14 calls
New vector                          :      0.017u      0.000s      0.000w     14 calls
HF: Form C                          :      0.000u      0.000s      0.003w     14 calls
Grad: V T Perturb                   :      0.100u      0.000s      0.056w      1 calls
Grad: S                             :      0.000u      0.000s      0.001w      1 calls
Grad: JK                            :      1.917u      0.017s      1.173w      1 calls
JKGrad: Amn                         :      0.300u      0.000s      0.179w      1 calls
JKGrad: Awmn                        :      0.000u      0.000s      0.000w      1 calls
JKGrad: AB                          :      0.283u      0.000s      0.171w      1 calls
JKGrad: UV                          :      0.000u      0.000s      0.000w      1 calls
JKGrad: ABx                         :      0.133u      0.000s      0.079w      1 calls
JKGrad: Amnx                        :      1.183u      0.000s      0.712w      1 calls
Grad: XC                            :      1.400u      0.000s      0.840w      1 calls
V_xc gradient                       :      0.567u      0.000s      0.300w   2975 calls

--------------------------------------------------------------------------------------
V: Grid                             :      1.200u      0.000s      0.729w      1 calls
DFH: sparsity prep                  :      0.017u      0.000s      0.012w      1 calls
DFH: initialize()                   :      0.617u      0.017s      0.385w      1 calls
| DFH: AO Construction              :      0.250u      0.000s      0.154w      1 calls
| DFH: AO-Met. Contraction          :      0.067u      0.000s      0.045w      1 calls
HF: Form core H                     :      0.000u      0.000s      0.002w      1 calls
HF: Form S/X                        :      0.000u      0.000s      0.000w      1 calls
HF: Guess                           :      0.267u      0.000s      0.154w      1 calls
| SAD Guess                         :      0.250u      0.000s      0.147w      1 calls
HF: Form G                          :      8.883u      0.117s      5.397w     15 calls
| RV: Form V                        :      8.833u      0.117s      5.375w     15 calls
| | Properties                      :      1.983u      0.000s      1.231w  44625 calls
| | Functional                      :      4.283u      0.083s      2.661w  44625 calls
| | V_xc                            :      2.433u      0.033s      1.417w  44625 calls
| JK: D                             :      0.000u      0.000s      0.000w     15 calls
| JK: USO2AO                        :      0.000u      0.000s      0.000w     15 calls
| JK: JK                            :      0.050u      0.000s      0.021w     15 calls
| | DFH: compute_JK()               :      0.050u      0.000s      0.021w     15 calls
| | | DFH: Grabbing AOs             :      0.000u      0.000s      0.000w     15 calls
| | | DFH: compute_J                :      0.050u      0.000s      0.021w     15 calls
| JK: AO2USO                        :      0.000u      0.000s      0.000w     15 calls
HF: Form F                          :      0.000u      0.000s      0.000w     15 calls
HF: Form D                          :      0.000u      0.000s      0.000w     15 calls
HF: DIIS                            :      0.017u      0.000s      0.007w     14 calls
| DIISManager::add_entry            :      0.000u      0.000s      0.001w     14 calls
| DIISManager::extrapolate          :      0.017u      0.000s      0.002w     14 calls
| | bMatrix setup                   :      0.000u      0.000s      0.001w     14 calls
| | bMatrix pseudoinverse           :      0.000u      0.000s      0.001w     14 calls
| | New vector                      :      0.017u      0.000s      0.000w     14 calls
HF: Form C                          :      0.000u      0.000s      0.003w     14 calls
Grad: V T Perturb                   :      0.100u      0.000s      0.056w      1 calls
Grad: S                             :      0.000u      0.000s      0.001w      1 calls
Grad: JK                            :      1.917u      0.017s      1.173w      1 calls
| JKGrad: Amn                       :      0.300u      0.000s      0.179w      1 calls
| JKGrad: Awmn                      :      0.000u      0.000s      0.000w      1 calls
| JKGrad: AB                        :      0.283u      0.000s      0.171w      1 calls
| JKGrad: UV                        :      0.000u      0.000s      0.000w      1 calls
| JKGrad: ABx                       :      0.133u      0.000s      0.079w      1 calls
| JKGrad: Amnx                      :      1.183u      0.000s      0.712w      1 calls
Grad: XC                            :      1.400u      0.000s      0.840w      1 calls
| Properties                        :      0.567u      0.000s      0.355w   2975 calls
| Functional                        :      0.267u      0.000s      0.180w   2975 calls
| V_xc gradient                     :      0.567u      0.000s      0.300w   2975 calls

**************************************************************************************

Host: aaojha

Timers On : Fri May 14 10:22:33 2021
Timers Off: Fri May 14 10:22:42 2021

Wall Time:        9.61 seconds

                                                       Time (seconds)
Module                                       User      System        Wall        Calls
V: Grid                             :      1.283u      0.017s      0.786w      1 calls
DFH: sparsity prep                  :      0.033u      0.000s      0.013w      1 calls
DFH: initialize()                   :      0.633u      0.033s      0.400w      1 calls
DFH: AO Construction                :      0.267u      0.000s      0.160w      1 calls
DFH: AO-Met. Contraction            :      0.083u      0.000s      0.047w      1 calls
HF: Form core H                     :      0.000u      0.000s      0.002w      1 calls
HF: Form S/X                        :      0.000u      0.000s      0.000w      1 calls
HF: Guess                           :      0.267u      0.000s      0.154w      1 calls
SAD Guess                           :      0.250u      0.000s      0.147w      1 calls
HF: Form G                          :      8.350u      0.100s      5.080w     14 calls
RV: Form V                          :      8.333u      0.100s      5.059w     14 calls
Properties                          :      2.183u      0.017s      1.525w  44505 calls
Functional                          :      4.550u      0.083s      2.676w  44505 calls
V_xc                                :      2.283u      0.000s      1.332w  41538 calls
JK: D                               :      0.000u      0.000s      0.000w     14 calls
JK: USO2AO                          :      0.000u      0.000s      0.000w     14 calls
JK: JK                              :      0.017u      0.000s      0.021w     14 calls
DFH: compute_JK()                   :      0.017u      0.000s      0.021w     14 calls
DFH: Grabbing AOs                   :      0.000u      0.000s      0.000w     14 calls
DFH: compute_J                      :      0.017u      0.000s      0.020w     14 calls
JK: AO2USO                          :      0.000u      0.000s      0.000w     14 calls
HF: Form F                          :      0.000u      0.000s      0.000w     14 calls
HF: Form D                          :      0.000u      0.000s      0.000w     14 calls
HF: DIIS                            :      0.000u      0.000s      0.015w     13 calls
DIISManager::add_entry              :      0.000u      0.000s      0.001w     13 calls
DIISManager::extrapolate            :      0.000u      0.000s      0.011w     13 calls
bMatrix setup                       :      0.000u      0.000s      0.010w     13 calls
bMatrix pseudoinverse               :      0.000u      0.000s      0.000w     13 calls
New vector                          :      0.000u      0.000s      0.000w     13 calls
HF: Form C                          :      0.000u      0.000s      0.003w     13 calls
Grad: V T Perturb                   :      0.083u      0.000s      0.051w      1 calls
Grad: S                             :      0.000u      0.000s      0.001w      1 calls
Grad: JK                            :      1.850u      0.000s      1.124w      1 calls
JKGrad: Amn                         :      0.300u      0.000s      0.172w      1 calls
JKGrad: Awmn                        :      0.000u      0.000s      0.000w      1 calls
JKGrad: AB                          :      0.267u      0.000s      0.165w      1 calls
JKGrad: UV                          :      0.000u      0.000s      0.000w      1 calls
JKGrad: ABx                         :      0.133u      0.000s      0.074w      1 calls
JKGrad: Amnx                        :      1.133u      0.000s      0.681w      1 calls
Grad: XC                            :      1.400u      0.000s      0.839w      1 calls
V_xc gradient                       :      0.483u      0.000s      0.299w   2967 calls

--------------------------------------------------------------------------------------
V: Grid                             :      1.283u      0.017s      0.786w      1 calls
DFH: sparsity prep                  :      0.033u      0.000s      0.013w      1 calls
DFH: initialize()                   :      0.633u      0.033s      0.400w      1 calls
| DFH: AO Construction              :      0.267u      0.000s      0.160w      1 calls
| DFH: AO-Met. Contraction          :      0.083u      0.000s      0.047w      1 calls
HF: Form core H                     :      0.000u      0.000s      0.002w      1 calls
HF: Form S/X                        :      0.000u      0.000s      0.000w      1 calls
HF: Guess                           :      0.267u      0.000s      0.154w      1 calls
| SAD Guess                         :      0.250u      0.000s      0.147w      1 calls
HF: Form G                          :      8.350u      0.100s      5.080w     14 calls
| RV: Form V                        :      8.333u      0.100s      5.059w     14 calls
| | Properties                      :      1.667u      0.017s      1.167w  41538 calls
| | Functional                      :      4.150u      0.083s      2.498w  41538 calls
| | V_xc                            :      2.283u      0.000s      1.332w  41538 calls
| JK: D                             :      0.000u      0.000s      0.000w     14 calls
| JK: USO2AO                        :      0.000u      0.000s      0.000w     14 calls
| JK: JK                            :      0.017u      0.000s      0.021w     14 calls
| | DFH: compute_JK()               :      0.017u      0.000s      0.021w     14 calls
| | | DFH: Grabbing AOs             :      0.000u      0.000s      0.000w     14 calls
| | | DFH: compute_J                :      0.017u      0.000s      0.020w     14 calls
| JK: AO2USO                        :      0.000u      0.000s      0.000w     14 calls
HF: Form F                          :      0.000u      0.000s      0.000w     14 calls
HF: Form D                          :      0.000u      0.000s      0.000w     14 calls
HF: DIIS                            :      0.000u      0.000s      0.015w     13 calls
| DIISManager::add_entry            :      0.000u      0.000s      0.001w     13 calls
| DIISManager::extrapolate          :      0.000u      0.000s      0.011w     13 calls
| | bMatrix setup                   :      0.000u      0.000s      0.010w     13 calls
| | bMatrix pseudoinverse           :      0.000u      0.000s      0.000w     13 calls
| | New vector                      :      0.000u      0.000s      0.000w     13 calls
HF: Form C                          :      0.000u      0.000s      0.003w     13 calls
Grad: V T Perturb                   :      0.083u      0.000s      0.051w      1 calls
Grad: S                             :      0.000u      0.000s      0.001w      1 calls
Grad: JK                            :      1.850u      0.000s      1.124w      1 calls
| JKGrad: Amn                       :      0.300u      0.000s      0.172w      1 calls
| JKGrad: Awmn                      :      0.000u      0.000s      0.000w      1 calls
| JKGrad: AB                        :      0.267u      0.000s      0.165w      1 calls
| JKGrad: UV                        :      0.000u      0.000s      0.000w      1 calls
| JKGrad: ABx                       :      0.133u      0.000s      0.074w      1 calls
| JKGrad: Amnx                      :      1.133u      0.000s      0.681w      1 calls
Grad: XC                            :      1.400u      0.000s      0.839w      1 calls
| Properties                        :      0.517u      0.000s      0.358w   2967 calls
| Functional                        :      0.400u      0.000s      0.178w   2967 calls
| V_xc gradient                     :      0.483u      0.000s      0.299w   2967 calls

**************************************************************************************

Host: aaojha

Timers On : Fri May 14 10:22:42 2021
Timers Off: Fri May 14 10:22:52 2021

Wall Time:        9.84 seconds

                                                       Time (seconds)
Module                                       User      System        Wall        Calls
V: Grid                             :      1.217u      0.017s      0.738w      1 calls
DFH: sparsity prep                  :      0.017u      0.000s      0.013w      1 calls
DFH: initialize()                   :      0.633u      0.017s      0.401w      1 calls
DFH: AO Construction                :      0.267u      0.000s      0.158w      1 calls
DFH: AO-Met. Contraction            :      0.067u      0.000s      0.048w      1 calls
HF: Form core H                     :      0.000u      0.000s      0.000w      1 calls
HF: Form S/X                        :      0.000u      0.000s      0.000w      1 calls
HF: Guess                           :      0.250u      0.000s      0.156w      1 calls
SAD Guess                           :      0.250u      0.000s      0.149w      1 calls
HF: Form G                          :      8.850u      0.100s      5.362w     15 calls
RV: Form V                          :      8.817u      0.100s      5.340w     15 calls
Properties                          :      2.383u      0.017s      1.577w  47456 calls
Functional                          :      4.650u      0.083s      2.816w  47456 calls
V_xc                                :      2.383u      0.017s      1.414w  44490 calls
JK: D                               :      0.000u      0.000s      0.000w     15 calls
JK: USO2AO                          :      0.000u      0.000s      0.000w     15 calls
JK: JK                              :      0.033u      0.000s      0.021w     15 calls
DFH: compute_JK()                   :      0.033u      0.000s      0.021w     15 calls
DFH: Grabbing AOs                   :      0.000u      0.000s      0.000w     15 calls
DFH: compute_J                      :      0.033u      0.000s      0.021w     15 calls
JK: AO2USO                          :      0.000u      0.000s      0.000w     15 calls
HF: Form F                          :      0.000u      0.000s      0.000w     15 calls
HF: Form D                          :      0.000u      0.000s      0.000w     15 calls
HF: DIIS                            :      0.017u      0.000s      0.007w     14 calls
DIISManager::add_entry              :      0.000u      0.000s      0.001w     14 calls
DIISManager::extrapolate            :      0.000u      0.000s      0.002w     14 calls
bMatrix setup                       :      0.000u      0.000s      0.001w     14 calls
bMatrix pseudoinverse               :      0.000u      0.000s      0.000w     14 calls
New vector                          :      0.000u      0.000s      0.000w     14 calls
HF: Form C                          :      0.000u      0.000s      0.003w     14 calls
Grad: V T Perturb                   :      0.083u      0.000s      0.053w      1 calls
Grad: S                             :      0.000u      0.000s      0.001w      1 calls
Grad: JK                            :      1.900u      0.000s      1.149w      1 calls
JKGrad: Amn                         :      0.300u      0.000s      0.174w      1 calls
JKGrad: Awmn                        :      0.000u      0.000s      0.000w      1 calls
JKGrad: AB                          :      0.283u      0.000s      0.171w      1 calls
JKGrad: UV                          :      0.000u      0.000s      0.000w      1 calls
JKGrad: ABx                         :      0.117u      0.000s      0.075w      1 calls
JKGrad: Amnx                        :      1.183u      0.000s      0.706w      1 calls
Grad: XC                            :      1.367u      0.033s      0.836w      1 calls
V_xc gradient                       :      0.650u      0.017s      0.299w   2966 calls

--------------------------------------------------------------------------------------
V: Grid                             :      1.217u      0.017s      0.738w      1 calls
DFH: sparsity prep                  :      0.017u      0.000s      0.013w      1 calls
DFH: initialize()                   :      0.633u      0.017s      0.401w      1 calls
| DFH: AO Construction              :      0.267u      0.000s      0.158w      1 calls
| DFH: AO-Met. Contraction          :      0.067u      0.000s      0.048w      1 calls
HF: Form core H                     :      0.000u      0.000s      0.000w      1 calls
HF: Form S/X                        :      0.000u      0.000s      0.000w      1 calls
HF: Guess                           :      0.250u      0.000s      0.156w      1 calls
| SAD Guess                         :      0.250u      0.000s      0.149w      1 calls
HF: Form G                          :      8.850u      0.100s      5.362w     15 calls
| RV: Form V                        :      8.817u      0.100s      5.340w     15 calls
| | Properties                      :      2.033u      0.017s      1.224w  44490 calls
| | Functional                      :      4.317u      0.067s      2.637w  44490 calls
| | V_xc                            :      2.383u      0.017s      1.414w  44490 calls
| JK: D                             :      0.000u      0.000s      0.000w     15 calls
| JK: USO2AO                        :      0.000u      0.000s      0.000w     15 calls
| JK: JK                            :      0.033u      0.000s      0.021w     15 calls
| | DFH: compute_JK()               :      0.033u      0.000s      0.021w     15 calls
| | | DFH: Grabbing AOs             :      0.000u      0.000s      0.000w     15 calls
| | | DFH: compute_J                :      0.033u      0.000s      0.021w     15 calls
| JK: AO2USO                        :      0.000u      0.000s      0.000w     15 calls
HF: Form F                          :      0.000u      0.000s      0.000w     15 calls
HF: Form D                          :      0.000u      0.000s      0.000w     15 calls
HF: DIIS                            :      0.017u      0.000s      0.007w     14 calls
| DIISManager::add_entry            :      0.000u      0.000s      0.001w     14 calls
| DIISManager::extrapolate          :      0.000u      0.000s      0.002w     14 calls
| | bMatrix setup                   :      0.000u      0.000s      0.001w     14 calls
| | bMatrix pseudoinverse           :      0.000u      0.000s      0.000w     14 calls
| | New vector                      :      0.000u      0.000s      0.000w     14 calls
HF: Form C                          :      0.000u      0.000s      0.003w     14 calls
Grad: V T Perturb                   :      0.083u      0.000s      0.053w      1 calls
Grad: S                             :      0.000u      0.000s      0.001w      1 calls
Grad: JK                            :      1.900u      0.000s      1.149w      1 calls
| JKGrad: Amn                       :      0.300u      0.000s      0.174w      1 calls
| JKGrad: Awmn                      :      0.000u      0.000s      0.000w      1 calls
| JKGrad: AB                        :      0.283u      0.000s      0.171w      1 calls
| JKGrad: UV                        :      0.000u      0.000s      0.000w      1 calls
| JKGrad: ABx                       :      0.117u      0.000s      0.075w      1 calls
| JKGrad: Amnx                      :      1.183u      0.000s      0.706w      1 calls
Grad: XC                            :      1.367u      0.033s      0.836w      1 calls
| Properties                        :      0.350u      0.000s      0.353w   2966 calls
| Functional                        :      0.333u      0.017s      0.179w   2966 calls
| V_xc gradient                     :      0.650u      0.017s      0.299w   2966 calls

**************************************************************************************

Host: aaojha

Timers On : Fri May 14 10:22:52 2021
Timers Off: Fri May 14 10:23:02 2021

Wall Time:        9.53 seconds

                                                       Time (seconds)
Module                                       User      System        Wall        Calls
V: Grid                             :      1.217u      0.017s      0.732w      1 calls
DFH: sparsity prep                  :      0.017u      0.000s      0.012w      1 calls
DFH: initialize()                   :      0.633u      0.017s      0.392w      1 calls
DFH: AO Construction                :      0.267u      0.000s      0.161w      1 calls
DFH: AO-Met. Contraction            :      0.067u      0.000s      0.046w      1 calls
HF: Form core H                     :      0.000u      0.000s      0.002w      1 calls
HF: Form S/X                        :      0.000u      0.000s      0.000w      1 calls
HF: Guess                           :      0.267u      0.000s      0.160w      1 calls
SAD Guess                           :      0.250u      0.000s      0.153w      1 calls
HF: Form G                          :      8.300u      0.100s      5.022w     14 calls
RV: Form V                          :      8.233u      0.100s      5.002w     14 calls
Properties                          :      2.283u      0.033s      1.501w  44250 calls
Functional                          :      4.400u      0.033s      2.650w  44250 calls
V_xc                                :      2.233u      0.033s      1.316w  41300 calls
JK: D                               :      0.000u      0.000s      0.000w     14 calls
JK: USO2AO                          :      0.000u      0.000s      0.000w     14 calls
JK: JK                              :      0.067u      0.000s      0.020w     14 calls
DFH: compute_JK()                   :      0.067u      0.000s      0.020w     14 calls
DFH: Grabbing AOs                   :      0.000u      0.000s      0.000w     14 calls
DFH: compute_J                      :      0.067u      0.000s      0.019w     14 calls
JK: AO2USO                          :      0.000u      0.000s      0.000w     14 calls
HF: Form F                          :      0.000u      0.000s      0.000w     14 calls
HF: Form D                          :      0.000u      0.000s      0.000w     14 calls
HF: DIIS                            :      0.000u      0.000s      0.006w     13 calls
DIISManager::add_entry              :      0.000u      0.000s      0.001w     13 calls
DIISManager::extrapolate            :      0.000u      0.000s      0.001w     13 calls
bMatrix setup                       :      0.000u      0.000s      0.001w     13 calls
bMatrix pseudoinverse               :      0.000u      0.000s      0.000w     13 calls
New vector                          :      0.000u      0.000s      0.000w     13 calls
HF: Form C                          :      0.000u      0.000s      0.003w     13 calls
Grad: V T Perturb                   :      0.083u      0.000s      0.050w      1 calls
Grad: S                             :      0.000u      0.000s      0.001w      1 calls
Grad: JK                            :      1.867u      0.000s      1.139w      1 calls
JKGrad: Amn                         :      0.300u      0.000s      0.175w      1 calls
JKGrad: Awmn                        :      0.000u      0.000s      0.000w      1 calls
JKGrad: AB                          :      0.267u      0.000s      0.166w      1 calls
JKGrad: UV                          :      0.000u      0.000s      0.000w      1 calls
JKGrad: ABx                         :      0.133u      0.000s      0.077w      1 calls
JKGrad: Amnx                        :      1.150u      0.000s      0.688w      1 calls
Grad: XC                            :      1.367u      0.000s      0.827w      1 calls
V_xc gradient                       :      0.567u      0.000s      0.298w   2950 calls

--------------------------------------------------------------------------------------
V: Grid                             :      1.217u      0.017s      0.732w      1 calls
DFH: sparsity prep                  :      0.017u      0.000s      0.012w      1 calls
DFH: initialize()                   :      0.633u      0.017s      0.392w      1 calls
| DFH: AO Construction              :      0.267u      0.000s      0.161w      1 calls
| DFH: AO-Met. Contraction          :      0.067u      0.000s      0.046w      1 calls
HF: Form core H                     :      0.000u      0.000s      0.002w      1 calls
HF: Form S/X                        :      0.000u      0.000s      0.000w      1 calls
HF: Guess                           :      0.267u      0.000s      0.160w      1 calls
| SAD Guess                         :      0.250u      0.000s      0.153w      1 calls
HF: Form G                          :      8.300u      0.100s      5.022w     14 calls
| RV: Form V                        :      8.233u      0.100s      5.002w     14 calls
| | Properties                      :      1.783u      0.033s      1.149w  41300 calls
| | Functional                      :      4.117u      0.033s      2.477w  41300 calls
| | V_xc                            :      2.233u      0.033s      1.316w  41300 calls
| JK: D                             :      0.000u      0.000s      0.000w     14 calls
| JK: USO2AO                        :      0.000u      0.000s      0.000w     14 calls
| JK: JK                            :      0.067u      0.000s      0.020w     14 calls
| | DFH: compute_JK()               :      0.067u      0.000s      0.020w     14 calls
| | | DFH: Grabbing AOs             :      0.000u      0.000s      0.000w     14 calls
| | | DFH: compute_J                :      0.067u      0.000s      0.019w     14 calls
| JK: AO2USO                        :      0.000u      0.000s      0.000w     14 calls
HF: Form F                          :      0.000u      0.000s      0.000w     14 calls
HF: Form D                          :      0.000u      0.000s      0.000w     14 calls
HF: DIIS                            :      0.000u      0.000s      0.006w     13 calls
| DIISManager::add_entry            :      0.000u      0.000s      0.001w     13 calls
| DIISManager::extrapolate          :      0.000u      0.000s      0.001w     13 calls
| | bMatrix setup                   :      0.000u      0.000s      0.001w     13 calls
| | bMatrix pseudoinverse           :      0.000u      0.000s      0.000w     13 calls
| | New vector                      :      0.000u      0.000s      0.000w     13 calls
HF: Form C                          :      0.000u      0.000s      0.003w     13 calls
Grad: V T Perturb                   :      0.083u      0.000s      0.050w      1 calls
Grad: S                             :      0.000u      0.000s      0.001w      1 calls
Grad: JK                            :      1.867u      0.000s      1.139w      1 calls
| JKGrad: Amn                       :      0.300u      0.000s      0.175w      1 calls
| JKGrad: Awmn                      :      0.000u      0.000s      0.000w      1 calls
| JKGrad: AB                        :      0.267u      0.000s      0.166w      1 calls
| JKGrad: UV                        :      0.000u      0.000s      0.000w      1 calls
| JKGrad: ABx                       :      0.133u      0.000s      0.077w      1 calls
| JKGrad: Amnx                      :      1.150u      0.000s      0.688w      1 calls
Grad: XC                            :      1.367u      0.000s      0.827w      1 calls
| Properties                        :      0.500u      0.000s      0.351w   2950 calls
| Functional                        :      0.283u      0.000s      0.173w   2950 calls
| V_xc gradient                     :      0.567u      0.000s      0.298w   2950 calls

**************************************************************************************

Host: aaojha

Timers On : Fri May 14 10:23:02 2021
Timers Off: Fri May 14 10:23:12 2021

Wall Time:        9.97 seconds

                                                       Time (seconds)
Module                                       User      System        Wall        Calls
V: Grid                             :      1.250u      0.017s      0.755w      1 calls
DFH: sparsity prep                  :      0.017u      0.000s      0.013w      1 calls
DFH: initialize()                   :      0.650u      0.017s      0.393w      1 calls
DFH: AO Construction                :      0.250u      0.000s      0.157w      1 calls
DFH: AO-Met. Contraction            :      0.083u      0.000s      0.046w      1 calls
HF: Form core H                     :      0.000u      0.000s      0.002w      1 calls
HF: Form S/X                        :      0.000u      0.000s      0.000w      1 calls
HF: Guess                           :      0.250u      0.017s      0.156w      1 calls
SAD Guess                           :      0.233u      0.017s      0.149w      1 calls
HF: Form G                          :      8.800u      0.133s      5.391w     15 calls
RV: Form V                          :      8.767u      0.133s      5.369w     15 calls
Properties                          :      2.767u      0.000s      1.593w  47264 calls
Functional                          :      4.450u      0.050s      2.830w  47264 calls
V_xc                                :      2.283u      0.083s      1.419w  44310 calls
JK: D                               :      0.000u      0.000s      0.000w     15 calls
JK: USO2AO                          :      0.000u      0.000s      0.000w     15 calls
JK: JK                              :      0.033u      0.000s      0.021w     15 calls
DFH: compute_JK()                   :      0.033u      0.000s      0.021w     15 calls
DFH: Grabbing AOs                   :      0.000u      0.000s      0.000w     15 calls
DFH: compute_J                      :      0.033u      0.000s      0.021w     15 calls
JK: AO2USO                          :      0.000u      0.000s      0.000w     15 calls
HF: Form F                          :      0.000u      0.000s      0.000w     15 calls
HF: Form D                          :      0.000u      0.000s      0.000w     15 calls
HF: DIIS                            :      0.033u      0.000s      0.006w     14 calls
DIISManager::add_entry              :      0.017u      0.000s      0.001w     14 calls
DIISManager::extrapolate            :      0.017u      0.000s      0.002w     14 calls
bMatrix setup                       :      0.000u      0.000s      0.001w     14 calls
bMatrix pseudoinverse               :      0.000u      0.000s      0.001w     14 calls
New vector                          :      0.017u      0.000s      0.000w     14 calls
HF: Form C                          :      0.017u      0.000s      0.003w     14 calls
Grad: V T Perturb                   :      0.083u      0.000s      0.055w      1 calls
Grad: S                             :      0.000u      0.000s      0.001w      1 calls
Grad: JK                            :      1.883u      0.000s      1.159w      1 calls
JKGrad: Amn                         :      0.300u      0.000s      0.187w      1 calls
JKGrad: Awmn                        :      0.000u      0.000s      0.000w      1 calls
JKGrad: AB                          :      0.283u      0.000s      0.181w      1 calls
JKGrad: UV                          :      0.000u      0.000s      0.000w      1 calls
JKGrad: ABx                         :      0.117u      0.000s      0.078w      1 calls
JKGrad: Amnx                        :      1.150u      0.000s      0.690w      1 calls
Grad: XC                            :      1.400u      0.000s      0.849w      1 calls
V_xc gradient                       :      0.500u      0.000s      0.308w   2954 calls

--------------------------------------------------------------------------------------
V: Grid                             :      1.250u      0.017s      0.755w      1 calls
DFH: sparsity prep                  :      0.017u      0.000s      0.013w      1 calls
DFH: initialize()                   :      0.650u      0.017s      0.393w      1 calls
| DFH: AO Construction              :      0.250u      0.000s      0.157w      1 calls
| DFH: AO-Met. Contraction          :      0.083u      0.000s      0.046w      1 calls
HF: Form core H                     :      0.000u      0.000s      0.002w      1 calls
HF: Form S/X                        :      0.000u      0.000s      0.000w      1 calls
HF: Guess                           :      0.250u      0.017s      0.156w      1 calls
| SAD Guess                         :      0.233u      0.017s      0.149w      1 calls
HF: Form G                          :      8.800u      0.133s      5.391w     15 calls
| RV: Form V                        :      8.767u      0.133s      5.369w     15 calls
| | Properties                      :      2.117u      0.000s      1.235w  44310 calls
| | Functional                      :      4.200u      0.050s      2.651w  44310 calls
| | V_xc                            :      2.283u      0.083s      1.419w  44310 calls
| JK: D                             :      0.000u      0.000s      0.000w     15 calls
| JK: USO2AO                        :      0.000u      0.000s      0.000w     15 calls
| JK: JK                            :      0.033u      0.000s      0.021w     15 calls
| | DFH: compute_JK()               :      0.033u      0.000s      0.021w     15 calls
| | | DFH: Grabbing AOs             :      0.000u      0.000s      0.000w     15 calls
| | | DFH: compute_J                :      0.033u      0.000s      0.021w     15 calls
| JK: AO2USO                        :      0.000u      0.000s      0.000w     15 calls
HF: Form F                          :      0.000u      0.000s      0.000w     15 calls
HF: Form D                          :      0.000u      0.000s      0.000w     15 calls
HF: DIIS                            :      0.033u      0.000s      0.006w     14 calls
| DIISManager::add_entry            :      0.017u      0.000s      0.001w     14 calls
| DIISManager::extrapolate          :      0.017u      0.000s      0.002w     14 calls
| | bMatrix setup                   :      0.000u      0.000s      0.001w     14 calls
| | bMatrix pseudoinverse           :      0.000u      0.000s      0.001w     14 calls
| | New vector                      :      0.017u      0.000s      0.000w     14 calls
HF: Form C                          :      0.017u      0.000s      0.003w     14 calls
Grad: V T Perturb                   :      0.083u      0.000s      0.055w      1 calls
Grad: S                             :      0.000u      0.000s      0.001w      1 calls
Grad: JK                            :      1.883u      0.000s      1.159w      1 calls
| JKGrad: Amn                       :      0.300u      0.000s      0.187w      1 calls
| JKGrad: Awmn                      :      0.000u      0.000s      0.000w      1 calls
| JKGrad: AB                        :      0.283u      0.000s      0.181w      1 calls
| JKGrad: UV                        :      0.000u      0.000s      0.000w      1 calls
| JKGrad: ABx                       :      0.117u      0.000s      0.078w      1 calls
| JKGrad: Amnx                      :      1.150u      0.000s      0.690w      1 calls
Grad: XC                            :      1.400u      0.000s      0.849w      1 calls
| Properties                        :      0.650u      0.000s      0.358w   2954 calls
| Functional                        :      0.250u      0.000s      0.179w   2954 calls
| V_xc gradient                     :      0.500u      0.000s      0.308w   2954 calls

**************************************************************************************

Host: aaojha

Timers On : Fri May 14 10:23:12 2021
Timers Off: Fri May 14 10:23:22 2021

Wall Time:        9.51 seconds

                                                       Time (seconds)
Module                                       User      System        Wall        Calls
V: Grid                             :      1.200u      0.033s      0.737w      1 calls
DFH: sparsity prep                  :      0.017u      0.000s      0.013w      1 calls
DFH: initialize()                   :      0.650u      0.017s      0.404w      1 calls
DFH: AO Construction                :      0.267u      0.000s      0.163w      1 calls
DFH: AO-Met. Contraction            :      0.083u      0.000s      0.048w      1 calls
HF: Form core H                     :      0.000u      0.000s      0.002w      1 calls
HF: Form S/X                        :      0.000u      0.000s      0.000w      1 calls
HF: Guess                           :      0.267u      0.000s      0.159w      1 calls
SAD Guess                           :      0.250u      0.000s      0.152w      1 calls
HF: Form G                          :      8.167u      0.150s      5.020w     14 calls
RV: Form V                          :      8.133u      0.150s      5.000w     14 calls
Properties                          :      2.250u      0.033s      1.500w  44235 calls
Functional                          :      4.433u      0.050s      2.637w  44235 calls
V_xc                                :      2.033u      0.067s      1.324w  41286 calls
JK: D                               :      0.000u      0.000s      0.000w     14 calls
JK: USO2AO                          :      0.000u      0.000s      0.000w     14 calls
JK: JK                              :      0.033u      0.000s      0.020w     14 calls
DFH: compute_JK()                   :      0.033u      0.000s      0.020w     14 calls
DFH: Grabbing AOs                   :      0.000u      0.000s      0.000w     14 calls
DFH: compute_J                      :      0.033u      0.000s      0.019w     14 calls
JK: AO2USO                          :      0.000u      0.000s      0.000w     14 calls
HF: Form F                          :      0.000u      0.000s      0.000w     14 calls
HF: Form D                          :      0.000u      0.000s      0.000w     14 calls
HF: DIIS                            :      0.033u      0.000s      0.006w     13 calls
DIISManager::add_entry              :      0.000u      0.000s      0.001w     13 calls
DIISManager::extrapolate            :      0.017u      0.000s      0.001w     13 calls
bMatrix setup                       :      0.000u      0.000s      0.001w     13 calls
bMatrix pseudoinverse               :      0.017u      0.000s      0.000w     13 calls
New vector                          :      0.000u      0.000s      0.000w     13 calls
HF: Form C                          :      0.000u      0.000s      0.003w     13 calls
Grad: V T Perturb                   :      0.083u      0.000s      0.051w      1 calls
Grad: S                             :      0.000u      0.000s      0.001w      1 calls
Grad: JK                            :      1.833u      0.017s      1.118w      1 calls
JKGrad: Amn                         :      0.283u      0.000s      0.170w      1 calls
JKGrad: Awmn                        :      0.000u      0.000s      0.000w      1 calls
JKGrad: AB                          :      0.267u      0.000s      0.165w      1 calls
JKGrad: UV                          :      0.000u      0.000s      0.000w      1 calls
JKGrad: ABx                         :      0.133u      0.000s      0.075w      1 calls
JKGrad: Amnx                        :      1.133u      0.000s      0.683w      1 calls
Grad: XC                            :      1.367u      0.000s      0.821w      1 calls
V_xc gradient                       :      0.650u      0.000s      0.296w   2949 calls

--------------------------------------------------------------------------------------
V: Grid                             :      1.200u      0.033s      0.737w      1 calls
DFH: sparsity prep                  :      0.017u      0.000s      0.013w      1 calls
DFH: initialize()                   :      0.650u      0.017s      0.404w      1 calls
| DFH: AO Construction              :      0.267u      0.000s      0.163w      1 calls
| DFH: AO-Met. Contraction          :      0.083u      0.000s      0.048w      1 calls
HF: Form core H                     :      0.000u      0.000s      0.002w      1 calls
HF: Form S/X                        :      0.000u      0.000s      0.000w      1 calls
HF: Guess                           :      0.267u      0.000s      0.159w      1 calls
| SAD Guess                         :      0.250u      0.000s      0.152w      1 calls
HF: Form G                          :      8.167u      0.150s      5.020w     14 calls
| RV: Form V                        :      8.133u      0.150s      5.000w     14 calls
| | Properties                      :      1.783u      0.033s      1.152w  41286 calls
| | Functional                      :      4.183u      0.050s      2.464w  41286 calls
| | V_xc                            :      2.033u      0.067s      1.324w  41286 calls
| JK: D                             :      0.000u      0.000s      0.000w     14 calls
| JK: USO2AO                        :      0.000u      0.000s      0.000w     14 calls
| JK: JK                            :      0.033u      0.000s      0.020w     14 calls
| | DFH: compute_JK()               :      0.033u      0.000s      0.020w     14 calls
| | | DFH: Grabbing AOs             :      0.000u      0.000s      0.000w     14 calls
| | | DFH: compute_J                :      0.033u      0.000s      0.019w     14 calls
| JK: AO2USO                        :      0.000u      0.000s      0.000w     14 calls
HF: Form F                          :      0.000u      0.000s      0.000w     14 calls
HF: Form D                          :      0.000u      0.000s      0.000w     14 calls
HF: DIIS                            :      0.033u      0.000s      0.006w     13 calls
| DIISManager::add_entry            :      0.000u      0.000s      0.001w     13 calls
| DIISManager::extrapolate          :      0.017u      0.000s      0.001w     13 calls
| | bMatrix setup                   :      0.000u      0.000s      0.001w     13 calls
| | bMatrix pseudoinverse           :      0.017u      0.000s      0.000w     13 calls
| | New vector                      :      0.000u      0.000s      0.000w     13 calls
HF: Form C                          :      0.000u      0.000s      0.003w     13 calls
Grad: V T Perturb                   :      0.083u      0.000s      0.051w      1 calls
Grad: S                             :      0.000u      0.000s      0.001w      1 calls
Grad: JK                            :      1.833u      0.017s      1.118w      1 calls
| JKGrad: Amn                       :      0.283u      0.000s      0.170w      1 calls
| JKGrad: Awmn                      :      0.000u      0.000s      0.000w      1 calls
| JKGrad: AB                        :      0.267u      0.000s      0.165w      1 calls
| JKGrad: UV                        :      0.000u      0.000s      0.000w      1 calls
| JKGrad: ABx                       :      0.133u      0.000s      0.075w      1 calls
| JKGrad: Amnx                      :      1.133u      0.000s      0.683w      1 calls
Grad: XC                            :      1.367u      0.000s      0.821w      1 calls
| Properties                        :      0.467u      0.000s      0.348w   2949 calls
| Functional                        :      0.250u      0.000s      0.172w   2949 calls
| V_xc gradient                     :      0.650u      0.000s      0.296w   2949 calls

**************************************************************************************

Host: aaojha

Timers On : Fri May 14 10:23:22 2021
Timers Off: Fri May 14 10:23:32 2021

Wall Time:        9.52 seconds

                                                       Time (seconds)
Module                                       User      System        Wall        Calls
V: Grid                             :      1.217u      0.000s      0.736w      1 calls
DFH: sparsity prep                  :      0.017u      0.000s      0.013w      1 calls
DFH: initialize()                   :      0.617u      0.017s      0.383w      1 calls
DFH: AO Construction                :      0.267u      0.000s      0.154w      1 calls
DFH: AO-Met. Contraction            :      0.067u      0.000s      0.045w      1 calls
HF: Form core H                     :      0.000u      0.000s      0.003w      1 calls
HF: Form S/X                        :      0.000u      0.000s      0.001w      1 calls
HF: Guess                           :      0.283u      0.000s      0.170w      1 calls
SAD Guess                           :      0.250u      0.000s      0.153w      1 calls
HF: Form G                          :      8.283u      0.117s      5.026w     14 calls
RV: Form V                          :      8.233u      0.117s      5.005w     14 calls
Properties                          :      2.533u      0.033s      1.503w  44415 calls
Functional                          :      4.783u      0.033s      2.634w  44415 calls
V_xc                                :      1.600u      0.067s      1.330w  41454 calls
JK: D                               :      0.000u      0.000s      0.000w     14 calls
JK: USO2AO                          :      0.000u      0.000s      0.000w     14 calls
JK: JK                              :      0.050u      0.000s      0.020w     14 calls
DFH: compute_JK()                   :      0.050u      0.000s      0.020w     14 calls
DFH: Grabbing AOs                   :      0.000u      0.000s      0.000w     14 calls
DFH: compute_J                      :      0.050u      0.000s      0.020w     14 calls
JK: AO2USO                          :      0.000u      0.000s      0.000w     14 calls
HF: Form F                          :      0.000u      0.000s      0.000w     14 calls
HF: Form D                          :      0.000u      0.000s      0.000w     14 calls
HF: DIIS                            :      0.000u      0.000s      0.006w     13 calls
[...]
JKGrad: AB                          :      0.283u      0.000s      0.170w      1 calls
JKGrad: UV                          :      0.000u      0.000s      0.000w      1 calls
JKGrad: ABx                         :      0.117u      0.000s      0.074w      1 calls
JKGrad: Amnx                        :      1.167u      0.000s      0.694w      1 calls
Grad: XC                            :      1.367u      0.000s      0.827w      1 calls
V_xc gradient                       :      0.450u      0.000s      0.299w   2949 calls

--------------------------------------------------------------------------------------
V: Grid                             :      1.200u      0.033s      0.739w      1 calls
DFH: sparsity prep                  :      0.017u      0.000s      0.013w      1 calls
DFH: initialize()                   :      0.617u      0.067s      0.404w      1 calls
| DFH: AO Construction              :      0.267u      0.000s      0.159w      1 calls
| DFH: AO-Met. Contraction          :      0.050u      0.033s      0.048w      1 calls
HF: Form core H                     :      0.000u      0.000s      0.000w      1 calls
HF: Form S/X                        :      0.000u      0.000s      0.000w      1 calls
HF: Guess                           :      0.250u      0.000s      0.154w      1 calls
| SAD Guess                         :      0.250u      0.000s      0.147w      1 calls
HF: Form G                          :      8.317u      0.083s      5.034w     14 calls
| RV: Form V                        :      8.233u      0.083s      5.013w     14 calls
| | Properties                      :      2.017u      0.033s      1.158w  41286 calls
| | Functional                      :      3.983u      0.033s      2.461w  41286 calls
| | V_xc                            :      2.100u      0.017s      1.334w  41286 calls
| JK: D                             :      0.000u      0.000s      0.000w     14 calls
| JK: USO2AO                        :      0.000u      0.000s      0.000w     14 calls
| JK: JK                            :      0.083u      0.000s      0.020w     14 calls
| | DFH: compute_JK()               :      0.083u      0.000s      0.020w     14 calls
| | | DFH: Grabbing AOs             :      0.000u      0.000s      0.000w     14 calls
| | | DFH: compute_J                :      0.083u      0.000s      0.020w     14 calls
| JK: AO2USO                        :      0.000u      0.000s      0.000w     14 calls
HF: Form F                          :      0.000u      0.000s      0.000w     14 calls
HF: Form D                          :      0.000u      0.000s      0.000w     14 calls
HF: DIIS                            :      0.000u      0.000s      0.006w     13 calls
| DIISManager::add_entry            :      0.000u      0.000s      0.001w     13 calls
| DIISManager::extrapolate          :      0.000u      0.000s      0.001w     13 calls
| | bMatrix setup                   :      0.000u      0.000s      0.001w     13 calls
| | bMatrix pseudoinverse           :      0.000u      0.000s      0.000w     13 calls
| | New vector                      :      0.000u      0.000s      0.000w     13 calls
HF: Form C                          :      0.000u      0.000s      0.003w     13 calls
Grad: V T Perturb                   :      0.083u      0.000s      0.051w      1 calls
Grad: S                             :      0.000u      0.000s      0.001w      1 calls
Grad: JK                            :      1.883u      0.000s      1.130w      1 calls
| JKGrad: Amn                       :      0.300u      0.000s      0.176w      1 calls
| JKGrad: Awmn                      :      0.000u      0.000s      0.000w      1 calls
| JKGrad: AB                        :      0.283u      0.000s      0.170w      1 calls
| JKGrad: UV                        :      0.000u      0.000s      0.000w      1 calls
| JKGrad: ABx                       :      0.117u      0.000s      0.074w      1 calls
| JKGrad: Amnx                      :      1.167u      0.000s      0.694w      1 calls
Grad: XC                            :      1.367u      0.000s      0.827w      1 calls
| Properties                        :      0.617u      0.000s      0.348w   2949 calls
| Functional                        :      0.300u      0.000s      0.176w   2949 calls
| V_xc gradient                     :      0.450u      0.000s      0.299w   2949 calls

**************************************************************************************

Host: aaojha

Timers On : Fri May 14 10:23:42 2021
Timers Off: Fri May 14 10:23:51 2021

Wall Time:        9.47 seconds

                                                       Time (seconds)
Module                                       User      System        Wall        Calls
V: Grid                             :      1.217u      0.033s      0.744w      1 calls
DFH: sparsity prep                  :      0.033u      0.000s      0.012w      1 calls
DFH: initialize()                   :      0.617u      0.050s      0.390w      1 calls
DFH: AO Construction                :      0.250u      0.017s      0.158w      1 calls
DFH: AO-Met. Contraction            :      0.067u      0.017s      0.046w      1 calls
HF: Form core H                     :      0.000u      0.000s      0.002w      1 calls
HF: Form S/X                        :      0.000u      0.000s      0.000w      1 calls
HF: Guess                           :      0.267u      0.000s      0.159w      1 calls
SAD Guess                           :      0.250u      0.000s      0.152w      1 calls
HF: Form G                          :      8.167u      0.133s      4.977w     14 calls
RV: Form V                          :      8.100u      0.133s      4.957w     14 calls
Properties                          :      2.500u      0.050s      1.491w  44100 calls
Functional                          :      4.383u      0.050s      2.623w  44100 calls
V_xc                                :      2.017u      0.033s      1.306w  41160 calls
JK: D                               :      0.000u      0.000s      0.000w     14 calls
JK: USO2AO                          :      0.000u      0.000s      0.000w     14 calls
JK: JK                              :      0.067u      0.000s      0.020w     14 calls
DFH: compute_JK()                   :      0.067u      0.000s      0.020w     14 calls
DFH: Grabbing AOs                   :      0.000u      0.000s      0.000w     14 calls
DFH: compute_J                      :      0.067u      0.000s      0.019w     14 calls
JK: AO2USO                          :      0.000u      0.000s      0.000w     14 calls
HF: Form F                          :      0.000u      0.000s      0.000w     14 calls
HF: Form D                          :      0.000u      0.000s      0.000w     14 calls
HF: DIIS                            :      0.017u      0.000s      0.006w     13 calls
DIISManager::add_entry              :      0.000u      0.000s      0.001w     13 calls
DIISManager::extrapolate            :      0.000u      0.000s      0.001w     13 calls
bMatrix setup                       :      0.000u      0.000s      0.001w     13 calls
bMatrix pseudoinverse               :      0.000u      0.000s      0.000w     13 calls
New vector                          :      0.000u      0.000s      0.000w     13 calls
HF: Form C                          :      0.000u      0.000s      0.003w     13 calls
Grad: V T Perturb                   :      0.083u      0.000s      0.051w      1 calls
Grad: S                             :      0.000u      0.000s      0.001w      1 calls
Grad: JK                            :      1.867u      0.000s      1.132w      1 calls
JKGrad: Amn                         :      0.283u      0.000s      0.175w      1 calls
JKGrad: Awmn                        :      0.000u      0.000s      0.000w      1 calls
JKGrad: AB                          :      0.283u      0.000s      0.169w      1 calls
JKGrad: UV                          :      0.000u      0.000s      0.000w      1 calls
JKGrad: ABx                         :      0.117u      0.000s      0.074w      1 calls
JKGrad: Amnx                        :      1.150u      0.000s      0.691w      1 calls
Grad: XC                            :      1.383u      0.000s      0.827w      1 calls
V_xc gradient                       :      0.467u      0.000s      0.299w   2940 calls

--------------------------------------------------------------------------------------
V: Grid                             :      1.217u      0.033s      0.744w      1 calls
DFH: sparsity prep                  :      0.033u      0.000s      0.012w      1 calls
DFH: initialize()                   :      0.617u      0.050s      0.390w      1 calls
| DFH: AO Construction              :      0.250u      0.017s      0.158w      1 calls
| DFH: AO-Met. Contraction          :      0.067u      0.017s      0.046w      1 calls
HF: Form core H                     :      0.000u      0.000s      0.002w      1 calls
HF: Form S/X                        :      0.000u      0.000s      0.000w      1 calls
HF: Guess                           :      0.267u      0.000s      0.159w      1 calls
| SAD Guess                         :      0.250u      0.000s      0.152w      1 calls
HF: Form G                          :      8.167u      0.133s      4.977w     14 calls
| RV: Form V                        :      8.100u      0.133s      4.957w     14 calls
| | Properties                      :      1.917u      0.050s      1.140w  41160 calls
| | Functional                      :      4.050u      0.050s      2.451w  41160 calls
| | V_xc                            :      2.017u      0.033s      1.306w  41160 calls
| JK: D                             :      0.000u      0.000s      0.000w     14 calls
| JK: USO2AO                        :      0.000u      0.000s      0.000w     14 calls
| JK: JK                            :      0.067u      0.000s      0.020w     14 calls
| | DFH: compute_JK()               :      0.067u      0.000s      0.020w     14 calls
| | | DFH: Grabbing AOs             :      0.000u      0.000s      0.000w     14 calls
| | | DFH: compute_J                :      0.067u      0.000s      0.019w     14 calls
| JK: AO2USO                        :      0.000u      0.000s      0.000w     14 calls
HF: Form F                          :      0.000u      0.000s      0.000w     14 calls
HF: Form D                          :      0.000u      0.000s      0.000w     14 calls
HF: DIIS                            :      0.017u      0.000s      0.006w     13 calls
| DIISManager::add_entry            :      0.000u      0.000s      0.001w     13 calls
| DIISManager::extrapolate          :      0.000u      0.000s      0.001w     13 calls
| | bMatrix setup                   :      0.000u      0.000s      0.001w     13 calls
| | bMatrix pseudoinverse           :      0.000u      0.000s      0.000w     13 calls
| | New vector                      :      0.000u      0.000s      0.000w     13 calls
HF: Form C                          :      0.000u      0.000s      0.003w     13 calls
Grad: V T Perturb                   :      0.083u      0.000s      0.051w      1 calls
Grad: S                             :      0.000u      0.000s      0.001w      1 calls
Grad: JK                            :      1.867u      0.000s      1.132w      1 calls
| JKGrad: Amn                       :      0.283u      0.000s      0.175w      1 calls
| JKGrad: Awmn                      :      0.000u      0.000s      0.000w      1 calls
| JKGrad: AB                        :      0.283u      0.000s      0.169w      1 calls
| JKGrad: UV                        :      0.000u      0.000s      0.000w      1 calls
| JKGrad: ABx                       :      0.117u      0.000s      0.074w      1 calls
| JKGrad: Amnx                      :      1.150u      0.000s      0.691w      1 calls
Grad: XC                            :      1.383u      0.000s      0.827w      1 calls
| Properties                        :      0.583u      0.000s      0.351w   2940 calls
| Functional                        :      0.333u      0.000s      0.172w   2940 calls
| V_xc gradient                     :      0.467u      0.000s      0.299w   2940 calls

**************************************************************************************

Host: aaojha

Timers On : Fri May 14 10:23:51 2021
Timers Off: Fri May 14 10:24:01 2021

Wall Time:        9.56 seconds

                                                       Time (seconds)
Module                                       User      System        Wall        Calls
V: Grid                             :      1.200u      0.033s      0.743w      1 calls
DFH: sparsity prep                  :      0.033u      0.000s      0.013w      1 calls
DFH: initialize()                   :      0.650u      0.033s      0.408w      1 calls
DFH: AO Construction                :      0.267u      0.017s      0.164w      1 calls
DFH: AO-Met. Contraction            :      0.083u      0.000s      0.048w      1 calls
HF: Form core H                     :      0.000u      0.000s      0.002w      1 calls
HF: Form S/X                        :      0.000u      0.000s      0.000w      1 calls
HF: Guess                           :      0.267u      0.000s      0.160w      1 calls
SAD Guess                           :      0.250u      0.000s      0.153w      1 calls
HF: Form G                          :      8.250u      0.083s      5.033w     14 calls
RV: Form V                          :      8.217u      0.083s      5.012w     14 calls
Properties                          :      2.533u      0.000s      1.522w  44115 calls
Functional                          :      4.200u      0.067s      2.633w  44115 calls
V_xc                                :      2.167u      0.017s      1.326w  41174 calls
JK: D                               :      0.000u      0.000s      0.000w     14 calls
JK: USO2AO                          :      0.000u      0.000s      0.000w     14 calls
JK: JK                              :      0.033u      0.000s      0.020w     14 calls
DFH: compute_JK()                   :      0.033u      0.000s      0.020w     14 calls
DFH: Grabbing AOs                   :      0.000u      0.000s      0.000w     14 calls
DFH: compute_J                      :      0.033u      0.000s      0.019w     14 calls
JK: AO2USO                          :      0.000u      0.000s      0.000w     14 calls
HF: Form F                          :      0.000u      0.000s      0.000w     14 calls
HF: Form D                          :      0.000u      0.000s      0.000w     14 calls
HF: DIIS                            :      0.017u      0.000s      0.006w     13 calls
DIISManager::add_entry              :      0.000u      0.000s      0.001w     13 calls
DIISManager::extrapolate            :      0.017u      0.000s      0.001w     13 calls
bMatrix setup                       :      0.017u      0.000s      0.001w     13 calls
bMatrix pseudoinverse               :      0.000u      0.000s      0.000w     13 calls
New vector                          :      0.000u      0.000s      0.000w     13 calls
HF: Form C                          :      0.000u      0.000s      0.003w     13 calls
Grad: V T Perturb                   :      0.083u      0.000s      0.052w      1 calls
Grad: S                             :      0.017u      0.000s      0.001w      1 calls
Grad: JK                            :      1.867u      0.000s      1.138w      1 calls
JKGrad: Amn                         :      0.283u      0.000s      0.173w      1 calls
JKGrad: Awmn                        :      0.000u      0.000s      0.000w      1 calls
JKGrad: AB                          :      0.283u      0.000s      0.167w      1 calls
JKGrad: UV                          :      0.000u      0.000s      0.000w      1 calls
JKGrad: ABx                         :      0.117u      0.000s      0.073w      1 calls
JKGrad: Amnx                        :      1.167u      0.000s      0.703w      1 calls
Grad: XC                            :      1.400u      0.000s      0.838w      1 calls
V_xc gradient                       :      0.550u      0.000s      0.303w   2941 calls

--------------------------------------------------------------------------------------
V: Grid                             :      1.200u      0.033s      0.743w      1 calls
DFH: sparsity prep                  :      0.033u      0.000s      0.013w      1 calls
DFH: initialize()                   :      0.650u      0.033s      0.408w      1 calls
| DFH: AO Construction              :      0.267u      0.017s      0.164w      1 calls
| DFH: AO-Met. Contraction          :      0.083u      0.000s      0.048w      1 calls
HF: Form core H                     :      0.000u      0.000s      0.002w      1 calls
HF: Form S/X                        :      0.000u      0.000s      0.000w      1 calls
HF: Guess                           :      0.267u      0.000s      0.160w      1 calls
| SAD Guess                         :      0.250u      0.000s      0.153w      1 calls
HF: Form G                          :      8.250u      0.083s      5.033w     14 calls
| RV: Form V                        :      8.217u      0.083s      5.012w     14 calls
| | Properties                      :      1.933u      0.000s      1.169w  41174 calls
| | Functional                      :      3.950u      0.067s      2.456w  41174 calls
| | V_xc                            :      2.167u      0.017s      1.326w  41174 calls
| JK: D                             :      0.000u      0.000s      0.000w     14 calls
| JK: USO2AO                        :      0.000u      0.000s      0.000w     14 calls
| JK: JK                            :      0.033u      0.000s      0.020w     14 calls
| | DFH: compute_JK()               :      0.033u      0.000s      0.020w     14 calls
| | | DFH: Grabbing AOs             :      0.000u      0.000s      0.000w     14 calls
| | | DFH: compute_J                :      0.033u      0.000s      0.019w     14 calls
| JK: AO2USO                        :      0.000u      0.000s      0.000w     14 calls
HF: Form F                          :      0.000u      0.000s      0.000w     14 calls
HF: Form D                          :      0.000u      0.000s      0.000w     14 calls
HF: DIIS                            :      0.017u      0.000s      0.006w     13 calls
| DIISManager::add_entry            :      0.000u      0.000s      0.001w     13 calls
| DIISManager::extrapolate          :      0.017u      0.000s      0.001w     13 calls
| | bMatrix setup                   :      0.017u      0.000s      0.001w     13 calls
| | bMatrix pseudoinverse           :      0.000u      0.000s      0.000w     13 calls
| | New vector                      :      0.000u      0.000s      0.000w     13 calls
HF: Form C                          :      0.000u      0.000s      0.003w     13 calls
Grad: V T Perturb                   :      0.083u      0.000s      0.052w      1 calls
Grad: S                             :      0.017u      0.000s      0.001w      1 calls
Grad: JK                            :      1.867u      0.000s      1.138w      1 calls
| JKGrad: Amn                       :      0.283u      0.000s      0.173w      1 calls
| JKGrad: Awmn                      :      0.000u      0.000s      0.000w      1 calls
| JKGrad: AB                        :      0.283u      0.000s      0.167w      1 calls
| JKGrad: UV                        :      0.000u      0.000s      0.000w      1 calls
| JKGrad: ABx                       :      0.117u      0.000s      0.073w      1 calls
| JKGrad: Amnx                      :      1.167u      0.000s      0.703w      1 calls
Grad: XC                            :      1.400u      0.000s      0.838w      1 calls
| Properties                        :      0.600u      0.000s      0.353w   2941 calls
| Functional                        :      0.250u      0.000s      0.177w   2941 calls
| V_xc gradient                     :      0.550u      0.000s      0.303w   2941 calls

**************************************************************************************
