
    -----------------------------------------------------------------------
          Psi4: An Open-Source Ab Initio Electronic Structure Package
                               Psi4 1.3.2 release

                         Git: Rev {HEAD} ecbda83 


    R. M. Parrish, L. A. Burns, D. G. A. Smith, A. C. Simmonett,
    A. E. DePrince III, E. G. Hohenstein, U. Bozkaya, A. Yu. Sokolov,
    R. Di Remigio, R. M. Richard, J. F. Gonthier, A. M. James,
    H. R. McAlexander, A. Kumar, M. Saitow, X. Wang, B. P. Pritchard,
    P. Verma, H. F. Schaefer III, K. Patkowski, R. A. King, E. F. Valeev,
    F. A. Evangelista, J. M. Turney, T. D. Crawford, and C. D. Sherrill,
    J. Chem. Theory Comput. 13(7) pp 3185--3197 (2017).
    (doi: 10.1021/acs.jctc.7b00174)


                         Additional Contributions by
    P. Kraus, H. Kruse, M. H. Lechner, M. C. Schieber, R. A. Shaw,
    A. Alenaizan, R. Galvelis, Z. L. Glick, S. Lehtola, and J. P. Misiewicz

    -----------------------------------------------------------------------


    Psi4 started on: Friday, 14 May 2021 09:32AM

    Process ID: 2852
    Host:       aaojha
    PSIDATADIR: /home/aaojha/anaconda3/envs/torsiondrive/share/psi4
    Memory:     500.0 MiB
    Threads:    1
    
  ==> Input File <==

--------------------------------------------------------------------------
memory 50 GB
molecule {
1 1
C           0.1522651    -0.0364492     0.0338521
C          -0.5648464    -1.1499078    -0.5075734
C          -1.9847673    -1.1148589    -0.5220271
C          -2.6794379     0.0170087    -0.0064228
C          -1.9578724     1.1288170     0.5166775
C          -0.5378051     1.1178211     0.5238762
C           1.6776253    -0.0306714    -0.0063308
N           2.3960087    -0.8215833     0.8638326
N           2.3363213     0.8291832    -0.8578878
H          -0.0216122    -2.0250838    -0.9137368
H          -2.5483418    -1.9711672    -0.9408935
H          -3.7872213     0.0352733    -0.0168980
H          -2.5004267     2.0085598     0.9143208
H           0.0271594     1.9807145     0.9265154
H           3.4490422    -0.8834630     0.8527271
H           1.8769151    -1.4597921     1.5207438
H           3.3868616     0.9162275    -0.8934873
H           1.7737502     1.4226845    -1.5206468
}
set {
basis STO-3G
}
gradient('BLYP')
--------------------------------------------------------------------------

  Memory set to  46.566 GiB by Python driver.
gradient() will perform analytic gradient computation.

*** tstart() called on aaojha
*** at Fri May 14 09:32:34 2021

   => Loading Basis Set <=

    Name: STO-3G
    Role: ORBITAL
    Keyword: BASIS
    atoms 1-7   entry C          line    61 file /home/aaojha/anaconda3/envs/torsiondrive/share/psi4/basis/sto-3g.gbs 
    atoms 8-9   entry N          line    71 file /home/aaojha/anaconda3/envs/torsiondrive/share/psi4/basis/sto-3g.gbs 
    atoms 10-18 entry H          line    19 file /home/aaojha/anaconda3/envs/torsiondrive/share/psi4/basis/sto-3g.gbs 


         ---------------------------------------------------------
                                   SCF
               by Justin Turney, Rob Parrish, Andy Simmonett
                          and Daniel G. A. Smith
                              RKS Reference
                        1 Threads,  47683 MiB Core
         ---------------------------------------------------------

  ==> Geometry <==

    Molecular point group: c1
    Full point group: C1

    Geometry (in Angstrom), charge = 1, multiplicity = 1:

       Center              X                  Y                   Z               Mass       
    ------------   -----------------  -----------------  -----------------  -----------------
         C            0.175405922184    -0.030764177025     0.030581837174    12.000000000000
         C           -0.541705577816    -1.144222777025    -0.510843662826    12.000000000000
         C           -1.961626477816    -1.109173877025    -0.525297362826    12.000000000000
         C           -2.656297077816     0.022693722975    -0.009693062826    12.000000000000
         C           -1.934731577816     1.134502022975     0.513407237174    12.000000000000
         C           -0.514664277816     1.123506122975     0.520605937174    12.000000000000
         C            1.700766122184    -0.024986377025    -0.009601062826    12.000000000000
         N            2.419149522184    -0.815898277025     0.860562337174    14.003074004430
         N            2.359462122184     0.834868222975    -0.861158062826    14.003074004430
         H            0.001528622184    -2.019398777025    -0.917007062826     1.007825032230
         H           -2.525200977816    -1.965482177025    -0.944163762826     1.007825032230
         H           -3.764080477816     0.040958322975    -0.020168262826     1.007825032230
         H           -2.477285877816     2.014244822975     0.911050537174     1.007825032230
         H            0.050300222184     1.986399522975     0.923245137174     1.007825032230
         H            3.472183022184    -0.877777977025     0.849456837174     1.007825032230
         H            1.900055922184    -1.454107077025     1.517473537174     1.007825032230
         H            3.410002422184     0.921912522975    -0.896757562826     1.007825032230
         H            1.796891022184     1.428369522975    -1.523917062826     1.007825032230

  Running in c1 symmetry.

  Rotational constants: A =      0.11600  B =      0.03535  C =      0.03129 [cm^-1]
  Rotational constants: A =   3477.71113  B =   1059.78556  C =    938.16742 [MHz]
  Nuclear repulsion =  405.488395199025945

  Charge       = 1
  Multiplicity = 1
  Electrons    = 64
  Nalpha       = 32
  Nbeta        = 32

  ==> Algorithm <==

  SCF Algorithm Type is DF.
  DIIS enabled.
  MOM disabled.
  Fractional occupation disabled.
  Guess Type is SAD.
  Energy threshold   = 1.00e-08
  Density threshold  = 1.00e-08
  Integral threshold = 0.00e+00

  ==> Primary Basis <==

  Basis Set: STO-3G
    Blend: STO-3G
    Number of shells: 36
    Number of basis function: 54
    Number of Cartesian functions: 54
    Spherical Harmonics?: true
    Max angular momentum: 1

  ==> DFT Potential <==

   => Composite Functional: BLYP <= 

    BLYP GGA Exchange-Correlation Functional

    P.J. Stephens et. al., J. Phys. Chem., 98, 11623-11627, 1994
    B. Miehlich et. al., Chem. Phys. Lett., 157(3), 200-206 1989


    Deriv               =              1
    GGA                 =           TRUE
    Meta                =          FALSE

    Exchange Hybrid     =          FALSE
    MP2 Hybrid          =          FALSE

   => Exchange Functionals <=

    1.0000     XC_GGA_X_B88

   => Correlation Functionals <=

    1.0000     XC_GGA_C_LYP

   => Molecular Quadrature <=

    Radial Scheme          =       TREUTLER
    Pruning Scheme         =           FLAT
    Nuclear Scheme         =       TREUTLER

    BS radius alpha        =              1
    Pruning alpha          =              1
    Radial Points          =             75
    Spherical Points       =            302
    Total Points           =         395749
    Total Blocks           =           2945
    Max Points             =            256
    Max Functions          =             51

   => Loading Basis Set <=

    Name: (STO-3G AUX)
    Role: JKFIT
    Keyword: DF_BASIS_SCF
    atoms 1-7   entry C          line   203 file /home/aaojha/anaconda3/envs/torsiondrive/share/psi4/basis/def2-svp-jkfit.gbs 
    atoms 8-9   entry N          line   263 file /home/aaojha/anaconda3/envs/torsiondrive/share/psi4/basis/def2-svp-jkfit.gbs 
    atoms 10-18 entry H          line    23 file /home/aaojha/anaconda3/envs/torsiondrive/share/psi4/basis/def2-svp-jkfit.gbs 

  ==> Pre-Iterations <==

   -------------------------------------------------------
    Irrep   Nso     Nmo     Nalpha   Nbeta   Ndocc  Nsocc
   -------------------------------------------------------
     A         54      54       0       0       0       0
   -------------------------------------------------------
    Total      54      54      32      32      32       0
   -------------------------------------------------------

  ==> Integral Setup <==

  DFHelper Memory: AOs need 0.024 GiB; user supplied 34.424 GiB. Using in-core AOs.

  ==> MemDFJK: Density-Fitted J/K Matrices <==

    J tasked:                   Yes
    K tasked:                    No
    wK tasked:                   No
    OpenMP threads:               1
    Memory [MiB]:             35250
    Algorithm:                 Core
    Schwarz Cutoff:           1E-12
    Mask sparsity (%):       1.8519
    Fitting Condition:        1E-10

   => Auxiliary Basis Set <=

  Basis Set: (STO-3G AUX)
    Blend: DEF2-SVP-JKFIT
    Number of shells: 279
    Number of basis function: 841
    Number of Cartesian functions: 989
    Spherical Harmonics?: true
    Max angular momentum: 4

  Cached 100.0% of DFT collocation blocks in 0.500 [GiB].

  Minimum eigenvalue in the overlap matrix is 1.8765137119E-01.
  Using Symmetric Orthogonalization.

  SCF Guess: Superposition of Atomic Densities via on-the-fly atomic UHF.

  ==> Iterations <==

                           Total Energy        Delta E     RMS |[F,P]|

   @DF-RKS iter SAD:  -373.14315809907430   -3.73143e+02   0.00000e+00 
   @DF-RKS iter   1:  -376.47932463874565   -3.33617e+00   5.16045e-03 DIIS
   @DF-RKS iter   2:  -376.32736779292895    1.51957e-01   1.03346e-02 DIIS
   @DF-RKS iter   3:  -376.53146799919182   -2.04100e-01   1.48482e-03 DIIS
   @DF-RKS iter   4:  -376.53510690174585   -3.63890e-03   6.45821e-04 DIIS
   @DF-RKS iter   5:  -376.53598723074390   -8.80329e-04   1.71721e-04 DIIS
   @DF-RKS iter   6:  -376.53604651779881   -5.92871e-05   3.38647e-05 DIIS
   @DF-RKS iter   7:  -376.53604807248757   -1.55469e-06   1.96279e-05 DIIS
   @DF-RKS iter   8:  -376.53604872934682   -6.56859e-07   6.42291e-06 DIIS
   @DF-RKS iter   9:  -376.53604880527371   -7.59269e-08   2.19236e-06 DIIS
   @DF-RKS iter  10:  -376.53604881449837   -9.22466e-09   3.53247e-07 DIIS
   @DF-RKS iter  11:  -376.53604881472290   -2.24532e-10   1.50342e-07 DIIS
   @DF-RKS iter  12:  -376.53604881476463   -4.17231e-11   2.70232e-08 DIIS
   @DF-RKS iter  13:  -376.53604881476576   -1.13687e-12   1.65373e-08 DIIS
   @DF-RKS iter  14:  -376.53604881476610   -3.41061e-13   6.03272e-09 DIIS
  Energy and wave function converged.


  ==> Post-Iterations <==

    Orbital Energies [Eh]
    ---------------------

    Doubly Occupied:                                                      

       1A    -14.135078     2A    -14.134908     3A    -10.099928  
       4A     -9.940538     5A     -9.914439     6A     -9.914200  
       7A     -9.901695     8A     -9.901109     9A     -9.900279  
      10A     -1.050560    11A     -0.972262    12A     -0.873582  
      13A     -0.799795    14A     -0.771713    15A     -0.737357  
      16A     -0.680486    17A     -0.661730    18A     -0.644909  
      19A     -0.626195    20A     -0.599662    21A     -0.566962  
      22A     -0.524908    23A     -0.516453    24A     -0.478786  
      25A     -0.477189    26A     -0.470292    27A     -0.413420  
      28A     -0.406936    29A     -0.401550    30A     -0.373448  
      31A     -0.315172    32A     -0.309450  

    Virtual:                                                              

      33A     -0.182796    34A     -0.110990    35A     -0.097109  
      36A      0.007121    37A      0.022583    38A      0.045271  
      39A      0.057671    40A      0.112116    41A      0.114771  
      42A      0.168314    43A      0.191458    44A      0.198638  
      45A      0.239988    46A      0.241744    47A      0.254528  
      48A      0.282088    49A      0.350379    50A      0.355668  
      51A      0.362838    52A      0.369355    53A      0.499602  
      54A      0.544743  

    Final Occupation by Irrep:
              A 
    DOCC [    32 ]

  @DF-RKS Final Energy:  -376.53604881476610

   => Energetics <=

    Nuclear Repulsion Energy =            405.4883951990259447
    One-Electron Energy =               -1302.0125921627140997
    Two-Electron Energy =                 574.2799800107275132
    DFT Exchange-Correlation Energy =     -54.2918318618054556
    Empirical Dispersion Energy =           0.0000000000000000
    VV10 Nonlocal Energy =                  0.0000000000000000
    Total Energy =                       -376.5360488147661044

Computation Completed


Properties will be evaluated at   0.000000,   0.000000,   0.000000 [a0]

Properties computed using the SCF density matrix

  Nuclear Dipole Moment: [e a0]
     X:     1.7339      Y:     0.0704      Z:    -0.0945

  Electronic Dipole Moment: [e a0]
     X:     1.1317      Y:    -0.0871      Z:     0.0373

  Dipole Moment: [e a0]
     X:     2.8656      Y:    -0.0167      Z:    -0.0572     Total:     2.8662

  Dipole Moment: [D]
     X:     7.2836      Y:    -0.0424      Z:    -0.1453     Total:     7.2852


*** tstop() called on aaojha at Fri May 14 09:32:42 2021
Module time:
	user time   =       7.81 seconds =       0.13 minutes
	system time =       0.24 seconds =       0.00 minutes
	total time  =          8 seconds =       0.13 minutes
Total time:
	user time   =       7.81 seconds =       0.13 minutes
	system time =       0.24 seconds =       0.00 minutes
	total time  =          8 seconds =       0.13 minutes

*** tstart() called on aaojha
*** at Fri May 14 09:32:42 2021


         ------------------------------------------------------------
                                   SCF GRAD                          
                          Rob Parrish, Justin Turney,                
                       Andy Simmonett, and Alex Sokolov              
         ------------------------------------------------------------

  ==> Geometry <==

    Molecular point group: c1
    Full point group: C1

    Geometry (in Angstrom), charge = 1, multiplicity = 1:

       Center              X                  Y                   Z               Mass       
    ------------   -----------------  -----------------  -----------------  -----------------
         C            0.175405922184    -0.030764177025     0.030581837174    12.000000000000
         C           -0.541705577816    -1.144222777025    -0.510843662826    12.000000000000
         C           -1.961626477816    -1.109173877025    -0.525297362826    12.000000000000
         C           -2.656297077816     0.022693722975    -0.009693062826    12.000000000000
         C           -1.934731577816     1.134502022975     0.513407237174    12.000000000000
         C           -0.514664277816     1.123506122975     0.520605937174    12.000000000000
         C            1.700766122184    -0.024986377025    -0.009601062826    12.000000000000
         N            2.419149522184    -0.815898277025     0.860562337174    14.003074004430
         N            2.359462122184     0.834868222975    -0.861158062826    14.003074004430
         H            0.001528622184    -2.019398777025    -0.917007062826     1.007825032230
         H           -2.525200977816    -1.965482177025    -0.944163762826     1.007825032230
         H           -3.764080477816     0.040958322975    -0.020168262826     1.007825032230
         H           -2.477285877816     2.014244822975     0.911050537174     1.007825032230
         H            0.050300222184     1.986399522975     0.923245137174     1.007825032230
         H            3.472183022184    -0.877777977025     0.849456837174     1.007825032230
         H            1.900055922184    -1.454107077025     1.517473537174     1.007825032230
         H            3.410002422184     0.921912522975    -0.896757562826     1.007825032230
         H            1.796891022184     1.428369522975    -1.523917062826     1.007825032230

  Nuclear repulsion =  405.488395199025945

  ==> Basis Set <==

  Basis Set: STO-3G
    Blend: STO-3G
    Number of shells: 36
    Number of basis function: 54
    Number of Cartesian functions: 54
    Spherical Harmonics?: true
    Max angular momentum: 1

  ==> DFJKGrad: Density-Fitted SCF Gradients <==

    Gradient:                    1
    J tasked:                  Yes
    K tasked:                   No
    wK tasked:                  No
    OpenMP threads:              1
    Integrals threads:           1
    Memory [MiB]:            35762
    Schwarz Cutoff:          0E+00
    Fitting Condition:       1E-10

   => Auxiliary Basis Set <=

  Basis Set: (STO-3G AUX)
    Blend: DEF2-SVP-JKFIT
    Number of shells: 279
    Number of basis function: 841
    Number of Cartesian functions: 989
    Spherical Harmonics?: true
    Max angular momentum: 4

  ==> DFT Potential <==

   => Composite Functional: BLYP <= 

    BLYP GGA Exchange-Correlation Functional

    P.J. Stephens et. al., J. Phys. Chem., 98, 11623-11627, 1994
    B. Miehlich et. al., Chem. Phys. Lett., 157(3), 200-206 1989


    Deriv               =              1
    GGA                 =           TRUE
    Meta                =          FALSE

    Exchange Hybrid     =          FALSE
    MP2 Hybrid          =          FALSE

   => Exchange Functionals <=

    1.0000     XC_GGA_X_B88

   => Correlation Functionals <=

    1.0000     XC_GGA_C_LYP

   => Molecular Quadrature <=

    Radial Scheme          =       TREUTLER
    Pruning Scheme         =           FLAT
    Nuclear Scheme         =       TREUTLER

    BS radius alpha        =              1
    Pruning alpha          =              1
    Radial Points          =             75
    Spherical Points       =            302
    Total Points           =         395749
    Total Blocks           =           2945
    Max Points             =            256
    Max Functions          =             51


  -Total Gradient:
     Atom            X                  Y                   Z
    ------   -----------------  -----------------  -----------------
       1       -0.000005812376    -0.001169238068     0.006121355255
       2        0.000094143726     0.001572835540    -0.003502130911
       3        0.000003283720     0.000076671779     0.000051823514
       4        0.000193487502    -0.000035302742    -0.000022268904
       5       -0.000154603922     0.000305812673     0.000151548481
       6       -0.000082545857    -0.000161196635    -0.000078544077
       7        0.000023615847    -0.003605919447    -0.005434642736
       8        0.000004882653     0.003029854996     0.002757032705
       9       -0.000055969230     0.000031402834     0.000065241422
      10        0.000011332282    -0.000014249297     0.000001083855
      11        0.000028736864    -0.000008407203    -0.000005999325
      12        0.000016426272     0.000026719514     0.000012948140
      13       -0.000022305001     0.000020438246     0.000007606904
      14       -0.000032773846    -0.000011759569     0.000006112552
      15        0.000013095785     0.000015083365    -0.000069199287
      16       -0.000008798571    -0.000029161864    -0.000020477039
      17        0.000002775901    -0.000013297664    -0.000033507918
      18       -0.000006801213    -0.000016796486    -0.000006593337


*** tstop() called on aaojha at Fri May 14 09:32:45 2021
Module time:
	user time   =       2.13 seconds =       0.04 minutes
	system time =       0.01 seconds =       0.00 minutes
	total time  =          3 seconds =       0.05 minutes
Total time:
	user time   =       9.94 seconds =       0.17 minutes
	system time =       0.25 seconds =       0.00 minutes
	total time  =         11 seconds =       0.18 minutes

    Psi4 stopped on: Friday, 14 May 2021 09:32AM
    Psi4 wall time for execution: 0:00:10.23

*** Psi4 exiting successfully. Buy a developer a beer!
