18   
Iteration 0 Energy -376.53877964
C        0.1591958000   -0.0319490000   -0.0418161000
C       -0.5605356000   -1.1783385000    0.4297433000
C       -1.9793825000   -1.1471775000    0.4510298000
C       -2.6760156000    0.0152758000    0.0090418000
C       -1.9565608000    1.1603481000   -0.4430310000
C       -0.5376083000    1.1522951000   -0.4508327000
C        1.6749999000   -0.0262189000    0.0071130000
N        2.3929894000   -0.9819002000   -0.6822154000
N        2.3395211000    0.9916040000    0.6599869000
H       -0.0158262000   -2.0740846000    0.7865781000
H       -2.5418544000   -2.0272846000    0.8190699000
H       -3.7840539000    0.0315047000    0.0224455000
H       -2.5020403000    2.0615810000   -0.7846953000
H        0.0247085000    2.0379890000   -0.8052157000
H        3.4434685000   -1.0553987000   -0.6366106000
H        1.8746483000   -1.7263811000   -1.2150989000
H        3.3897741000    1.0782534000    0.6690079000
H        1.7854851000    1.6951572000    1.2118968000
18   
Iteration 1 Energy -376.53975601
C        0.1577302182   -0.0181982842   -0.0312397757
C       -0.5562119831   -1.1832186646    0.4019018966
C       -1.9751918141   -1.1578925066    0.4211096017
C       -2.6778294599    0.0117942472    0.0087841546
C       -1.9605623027    1.1690234755   -0.4150164681
C       -0.5415689835    1.1707834785   -0.4215938189
C        1.6740586534   -0.0154949438   -0.0028942896
N        2.3867931030   -1.0110251757   -0.6392029589
N        2.3476540641    1.0163264911    0.6174749095
H       -0.0078935805   -2.0869756486    0.7321033040
H       -2.5341763560   -2.0504887734    0.7634017960
H       -3.7859938138    0.0228472032    0.0202047019
H       -2.5098359256    2.0746786195   -0.7382535398
H        0.0170698956    2.0656253250   -0.7585350095
H        3.4364751964   -1.0912974757   -0.5862079109
H        1.8636882087   -1.7780659296   -1.1340686312
H        3.3985661683    1.0948320003    0.6251909727
H        1.7990262622    1.7434674300    1.1435963820
18   
Iteration 2 Energy -376.54032505
C        0.1612689899   -0.0144287215   -0.0231258584
C       -0.5554312011   -1.1889804162    0.3795267958
C       -1.9743153838   -1.1698465577    0.3954034317
C       -2.6750029157    0.0087320903    0.0046399501
C       -1.9647659324    1.1793820612   -0.3935420538
C       -0.5458968711    1.1768135346   -0.3934638134
C        1.6759165575   -0.0113118001    0.0023432764
N        2.3780664266   -1.0341342764   -0.6018349578
N        2.3566313488    1.0386455362    0.5842006671
H       -0.0070851527   -2.0978179290    0.6951464866
H       -2.5328405671   -2.0705797726    0.7167670605
H       -3.7831936848    0.0160620287    0.0125473594
H       -2.5149415355    2.0901592743   -0.7008534464
H        0.0114891574    2.0790799570   -0.7118168584
H        3.4272037592   -1.1168357728   -0.5481818967
H        1.8496489488   -1.8114635022   -1.0740675314
H        3.4075895021    1.1130158792    0.5794407028
H        1.8146868605    1.7895910682    1.0826186138
18   
Iteration 3 Energy -376.54107904
C        0.1612842494   -0.0080505864   -0.0139506365
C       -0.5520062063   -1.1995031475    0.3451171967
C       -1.9705210036   -1.1825111669    0.3555724491
C       -2.6771708143    0.0044605557    0.0008713450
C       -1.9621022342    1.1861365354   -0.3555970119
C       -0.5436008908    1.1943443181   -0.3530047734
C        1.6725641127   -0.0081984637    0.0069456825
N        2.3666328770   -1.0675956513   -0.5419725794
N        2.3604177787    1.0685714088    0.5294195122
H       -0.0030989208   -2.1155444667    0.6385130447
H       -2.5272894524   -2.0948349145    0.6455387624
H       -3.7855978580    0.0092230259    0.0039721905
H       -2.5138861792    2.1039928471   -0.6374725340
H        0.0109011915    2.1076785310   -0.6443044560
H        3.4150013504   -1.1542230551   -0.4878461082
H        1.8328016656   -1.8602527862   -0.9805222277
H        3.4110028647    1.1395583439    0.5082346622
H        1.8252791840    1.8505261204    0.9849055347
18   
Iteration 4 Energy -376.54110918
C        0.1610384539   -0.0146710110   -0.0199739587
C       -0.5608977643   -1.2019738152    0.3392686971
C       -1.9790792685   -1.1822595556    0.3522836963
C       -2.6813490225    0.0090499454    0.0037021155
C       -1.9644635927    1.1910907400   -0.3474246491
C       -0.5461907361    1.1907490133   -0.3468316764
C        1.6715591596   -0.0182832801    0.0058348850
N        2.3854387231   -1.0706095190   -0.5324259929
N        2.3550157139    1.0668919471    0.5164527423
H       -0.0165795084   -2.1202338491    0.6342307187
H       -2.5383888776   -2.0936036002    0.6405525658
H       -3.7897492042    0.0174923262    0.0093206260
H       -2.5131875901    2.1128142769   -0.6227860578
H        0.0090326529    2.1044177147   -0.6355231761
H        3.4346169201   -1.1430327239   -0.4749337141
H        1.8653740009   -1.8698637066   -0.9748652353
H        3.4047939799    1.1461232061    0.4912203088
H        1.8162460161    1.8491414187    0.9666814598
18   
Iteration 5 Energy -376.54113678
C        0.1600356753   -0.0140412617   -0.0236135863
C       -0.5584722820   -1.2035314932    0.3370767619
C       -1.9764687702   -1.1842931124    0.3503085266
C       -2.6780843000    0.0077110362    0.0029770909
C       -1.9645744532    1.1919252954   -0.3476715126
C       -0.5465421494    1.1928712026   -0.3481271658
C        1.6697920444   -0.0144591538    0.0071609907
N        2.3765922550   -1.0728639973   -0.5292608330
N        2.3569791692    1.0698989822    0.5164612517
H       -0.0127193595   -2.1211260635    0.6317348691
H       -2.5357539165   -2.0958172713    0.6380453189
H       -3.7864678565    0.0152028001    0.0093815990
H       -2.5149329476    2.1132470766   -0.6211775895
H        0.0077642680    2.1067208766   -0.6381319572
H        3.4256541565   -1.1444191051   -0.4705141547
H        1.8549841573   -1.8718832139   -0.9704689855
H        3.4070240419    1.1445686603    0.4894419079
H        1.8224880619    1.8523095803    0.9714513638
18   
Iteration 6 Energy -376.54113696
C        0.1614175098   -0.0132341137   -0.0251808160
C       -0.5580309780   -1.2016395786    0.3361791213
C       -1.9762357507   -1.1830313604    0.3498610669
C       -2.6814307590    0.0070312095    0.0030463090
C       -1.9656524178    1.1898225737   -0.3480672588
C       -0.5474142304    1.1921506629   -0.3491897852
C        1.6710500480   -0.0122757178    0.0072304882
N        2.3754921716   -1.0730598087   -0.5279835028
N        2.3586671351    1.0715466903    0.5173980727
H       -0.0119623490   -2.1193133677    0.6298582946
H       -2.5340735405   -2.0952554275    0.6381296226
H       -3.7898539528    0.0140585187    0.0099825172
H       -2.5158426637    2.1112827195   -0.6213405875
H        0.0059056629    2.1062133053   -0.6403125876
H        3.4242675013   -1.1507507094   -0.4720347039
H        1.8504001699   -1.8693411583   -0.9700159813
H        3.4089862943    1.1431246816    0.4927460071
H        1.8253831477    1.8532594538    0.9750944798
