18   
Iteration 0 Energy -376.54113745
C        0.1623409000   -0.0133830000    0.0279401000
C       -0.5542714000   -1.2138039000   -0.2970900000
C       -1.9723737000   -1.1954083000   -0.3131991000
C       -2.6756411000    0.0065600000   -0.0055404000
C       -1.9624911000    1.2013366000    0.3085886000
C       -0.5443441000    1.2034912000    0.3112945000
C        1.6719676000   -0.0136182000   -0.0040696000
N        2.3849297000   -1.0526576000    0.5611273000
N        2.3544483000    1.0571305000   -0.5468025000
H       -0.0069352000   -2.1400676000   -0.5599471000
H       -2.5306669000   -2.1159183000   -0.5728684000
H       -3.7840177000    0.0134474000   -0.0144025000
H       -2.5137069000    2.1308044000    0.5509887000
H        0.0099280000    2.1259652000    0.5725762000
H        3.4352331000   -1.1162355000    0.5167156000
H        1.8683409000   -1.8283475000    1.0475379000
H        3.4052882000    1.1255522000   -0.5398271000
H        1.8185486000    1.8123378000   -1.0444050000
18   
Iteration 1 Energy -376.54167498
C        0.1647794149   -0.0009797186    0.0157135603
C       -0.5483724392   -1.2141436644   -0.2671694130
C       -1.9667194871   -1.2040426991   -0.2807786679
C       -2.6777740290    0.0007054048   -0.0037258135
C       -1.9674826863    1.2046405847    0.2805358737
C       -0.5492809868    1.2156347664    0.2804492316
C        1.6747448645    0.0008845586    0.0027881894
N        2.3686367096   -1.0775439562    0.5154706443
N        2.3696911243    1.0818590385   -0.5042473916
H        0.0027822610   -2.1455986113   -0.5019245812
H       -2.5199656835   -2.1348545849   -0.5130322040
H       -3.7862320165    0.0016978542   -0.0095860846
H       -2.5226111588    2.1364450322    0.5041994399
H       -0.0002386483    2.1461200395    0.5236673988
H        3.4177362490   -1.1556438974    0.4683983806
H        1.8385053640   -1.8702858961    0.9578124522
H        3.4210517725    1.1411236239   -0.4944135798
H        1.8417619128    1.8591785746   -0.9754711961
18   
Iteration 2 Energy -376.54190732
C        0.1622274340   -0.0046723419    0.0073543930
C       -0.5548276003   -1.2226290870   -0.2471758263
C       -1.9726873992   -1.2095406844   -0.2581332690
C       -2.6767806085    0.0046851366   -0.0043378525
C       -1.9698233845    1.2160844940    0.2551429106
C       -0.5519545116    1.2168593598    0.2525197143
C        1.6716918369   -0.0063610865    0.0049919681
N        2.3820438218   -1.0922263840    0.4786416865
N        2.3639122718    1.0931018484   -0.4637867435
H       -0.0085086765   -2.1601673464   -0.4682688830
H       -2.5297402145   -2.1430157001   -0.4699849119
H       -3.7852026802    0.0071019329   -0.0086755112
H       -2.5226828474    2.1532740901    0.4617304954
H       -0.0006705119    2.1502269627    0.4788597130
H        3.4317691601   -1.1553282190    0.4271369699
H        1.8644723085   -1.9031105629    0.9015978837
H        3.4148973278    1.1522207891   -0.4442505122
H        1.8367696986    1.8878428804   -0.9053724626
18   
Iteration 3 Energy -376.54208937
C        0.1623036811    0.0013313117   -0.0045235750
C       -0.5531172619   -1.2266261193   -0.2158920176
C       -1.9706807793   -1.2171217340   -0.2209971053
C       -2.6813551144    0.0001285526   -0.0012641143
C       -1.9676360170    1.2155323726    0.2195506949
C       -0.5500870315    1.2293560215    0.2150551812
C        1.6699827305   -0.0013875955    0.0035554798
N        2.3709309950   -1.1161387403    0.4217983518
N        2.3713510298    1.1149147754   -0.4107125100
H       -0.0076210994   -2.1694955646   -0.4155074395
H       -2.5248652102   -2.1587377384   -0.4017375527
H       -3.7899751554    0.0011817383   -0.0005775423
H       -2.5220508492    2.1564504917    0.4028909636
H       -0.0040113735    2.1712416859    0.4182056212
H        3.4204841242   -1.1766080135    0.3709461507
H        1.8509698750   -1.9425974630    0.8094216663
H        3.4220730891    1.1673053226   -0.3792448190
H        1.8526041265    1.9348371975   -0.8135689301
18   
Iteration 4 Energy -376.54211590
C        0.1669259295   -0.0002939299   -0.0030403724
C       -0.5549678955   -1.2251984068   -0.2120108599
C       -1.9725447574   -1.2183915545   -0.2152771218
C       -2.6831354223   -0.0005103717    0.0014690092
C       -1.9738351669    1.2182574831    0.2166344900
C       -0.5562520891    1.2232978463    0.2102913131
C        1.6745401747    0.0005434531   -0.0028647881
N        2.3702540840   -1.1191608967    0.4119765717
N        2.3809234333    1.1187317884   -0.4059997208
H       -0.0123911870   -2.1691468370   -0.4139122586
H       -2.5261695194   -2.1610479603   -0.3925376963
H       -3.7917147146   -0.0012323565    0.0029419913
H       -2.5272046103    2.1606668875    0.3961560627
H       -0.0132055103    2.1673197162    0.4102958725
H        3.4198551378   -1.1808139350    0.3679891346
H        1.8481168337   -1.9436730463    0.8003810750
H        3.4313690678    1.1713794795   -0.3700825726
H        1.8658950866    1.9426195559   -0.8048239832
18   
Iteration 5 Energy -376.54214856
C        0.1630191615   -0.0018862512    0.0003232992
C       -0.5559714492   -1.2283876187   -0.2112632456
C       -1.9733434171   -1.2185172111   -0.2152561811
C       -2.6814924366    0.0009022679    0.0004466437
C       -1.9716603523    1.2194824171    0.2150563157
C       -0.5542610719    1.2259877624    0.2103661371
C        1.6701960546   -0.0024477518   -0.0013189210
N        2.3746675337   -1.1190259802    0.4081665593
N        2.3743213590    1.1176719907   -0.4022452450
H       -0.0138398838   -2.1726449589   -0.4134551448
H       -2.5285879049   -2.1601728262   -0.3926224511
H       -3.7900670350    0.0016594665    0.0006919786
H       -2.5250750603    2.1622458149    0.3923543361
H       -0.0101732556    2.1696559440    0.4098059562
H        3.4246905571   -1.1758751445    0.3664977345
H        1.8577753612   -1.9461076496    0.7980005034
H        3.4248471799    1.1690695034   -0.3662893940
H        1.8594169801    1.9416098267   -0.8013260470
18   
Iteration 6 Energy -376.54215146
C        0.1630416184   -0.0017374133    0.0022842289
C       -0.5570548451   -1.2271279649   -0.2109948343
C       -1.9745551680   -1.2177382806   -0.2160321450
C       -2.6836701708    0.0011032617   -0.0003956618
C       -1.9717384018    1.2183720412    0.2151809993
C       -0.5542218503    1.2259863312    0.2114840015
C        1.6700852036   -0.0031669442   -0.0000344870
N        2.3757533978   -1.1200055389    0.4069368000
N        2.3737465996    1.1169052478   -0.4014250460
H       -0.0148103626   -2.1714285362   -0.4125401143
H       -2.5292628276   -2.1595152804   -0.3944233298
H       -3.7922673638    0.0024283365   -0.0009821389
H       -2.5248217515    2.1613665157    0.3921347594
H       -0.0103002673    2.1695801604    0.4117412862
H        3.4261215701   -1.1704044958    0.3650669732
H        1.8622676505   -1.9478047580    0.7999437544
H        3.4244455451    1.1660093733   -0.3675854240
H        1.8595055065    1.9404935719   -0.8022394138
18   
Iteration 7 Energy -376.54215507
C        0.1627524712   -0.0012856066    0.0036549184
C       -0.5556945697   -1.2272853317   -0.2110406921
C       -1.9732154221   -1.2179348064   -0.2165677266
C       -2.6825045001    0.0007818694   -0.0005205686
C       -1.9718694066    1.2186500693    0.2162764399
C       -0.5543548913    1.2264126289    0.2128834393
C        1.6695183819   -0.0020978364   -0.0002025156
N        2.3727911139   -1.1212203433    0.4048981652
N        2.3737453561    1.1177287877   -0.4015223298
H       -0.0124338582   -2.1711354557   -0.4119676890
H       -2.5277270254   -2.1596634376   -0.3958255469
H       -3.7910969300    0.0015721328   -0.0015998873
H       -2.5255026828    2.1613197875    0.3932807440
H       -0.0103344505    2.1697717214    0.4139664618
H        3.4232308642   -1.1728416660    0.3664274270
H        1.8577479941   -1.9465453534    0.8011620516
H        3.4245583085    1.1666589117   -0.3709489046
H        1.8595046068    1.9405081600   -0.8040282462
18   
Iteration 8 Energy -376.54215675
C        0.1629007326   -0.0013854919    0.0044306032
C       -0.5563018904   -1.2268989579   -0.2113352975
C       -1.9738053118   -1.2177085093   -0.2173051857
C       -2.6833151952    0.0007556837   -0.0008061693
C       -1.9723262078    1.2182158334    0.2169462694
C       -0.5548335718    1.2259765623    0.2139915348
C        1.6697370030   -0.0020607994   -0.0007033292
N        2.3734599206   -1.1217400687    0.4022452853
N        2.3737119801    1.1184427059   -0.4008766711
H       -0.0131938503   -2.1707453625   -0.4125280334
H       -2.5281781739   -2.1593387058   -0.3975020184
H       -3.7919125376    0.0016614969   -0.0021765705
H       -2.5258895743    2.1608604071    0.3942874450
H       -0.0110163415    2.1692462940    0.4160230943
H        3.4239508770   -1.1755511255    0.3687936094
H        1.8573743464   -1.9439190891    0.8035110389
H        3.4246314674    1.1674135778   -0.3734656845
H        1.8590121886    1.9401455566   -0.8049456271
18   
Iteration 9 Energy -376.54215848
C        0.1622543192   -0.0020094567    0.0043628105
C       -0.5569644096   -1.2274993816   -0.2122393737
C       -1.9743953814   -1.2176322992   -0.2182591498
C       -2.6831211991    0.0011470256   -0.0009815954
C       -1.9725956105    1.2186658921    0.2177110537
C       -0.5551621552    1.2255332017    0.2148483266
C        1.6691801094   -0.0026298010   -0.0009454299
N        2.3734530172   -1.1222713939    0.4009868310
N        2.3727240487    1.1185149901   -0.4001891593
H       -0.0141594649   -2.1713473156   -0.4142646820
H       -2.5292632157   -2.1588341591   -0.3991778273
H       -3.7917080953    0.0022537373   -0.0024347549
H       -2.5260375965    2.1612612993    0.3957500786
H       -0.0109542905    2.1684256865    0.4176067812
H        3.4242066175   -1.1719878754    0.3696812539
H        1.8592067730   -1.9435031469    0.8065534949
H        3.4237770687    1.1655937739   -0.3741654080
H        1.8584757081    1.9396165641   -0.8060876420
18   
Iteration 10 Energy -376.54215883
C        0.1619481130   -0.0019666722    0.0038695536
C       -0.5572307320   -1.2272327129   -0.2133128410
C       -1.9746927376   -1.2173501262   -0.2191801947
C       -2.6834911387    0.0012435694   -0.0009344819
C       -1.9726586889    1.2184692783    0.2185439863
C       -0.5551880438    1.2254532477    0.2154909117
C        1.6688603029   -0.0029077178   -0.0006098545
N        2.3731883537   -1.1224686415    0.4014279086
N        2.3723418276    1.1180949938   -0.4002043485
H       -0.0142844431   -2.1708665990   -0.4160247642
H       -2.5295745882   -2.1584514594   -0.4005795049
H       -3.7920778620    0.0024193383   -0.0022577955
H       -2.5260266453    2.1609321441    0.3974959523
H       -0.0107788417    2.1681343441    0.4186707970
H        3.4240726042   -1.1707665539    0.3711531971
H        1.8593465022   -1.9433225989    0.8083992662
H        3.4234057930    1.1657218050   -0.3753603990
H        1.8576275754    1.9380742923   -0.8078318613
