18   
Iteration 0 Energy -376.53880856
C        0.1534158000    0.0602473000   -0.0469857000
C       -0.5529057000   -0.8516848000   -0.8984408000
C       -1.9710785000   -0.8821555000   -0.8518728000
C       -2.6790224000   -0.0151810000    0.0308448000
C       -1.9711524000    0.8794529000    0.8861636000
C       -0.5526459000    0.9086519000    0.8675147000
C        1.6693748000    0.0313437000   -0.0268418000
N        2.3391617000   -0.2362399000    1.1495836000
N        2.3795034000    0.1719388000   -1.2012087000
H        0.0008124000   -1.5344677000   -1.5719224000
H       -2.5246954000   -1.5883727000   -1.5008828000
H       -3.7866714000   -0.0407498000    0.0566228000
H       -2.5252821000    1.5506881000    1.5708585000
H        0.0008379000    1.6053977000    1.5268055000
H        3.3898385000   -0.2184894000    1.2323317000
H        1.7835360000   -0.3804404000    2.0312455000
H        3.4281526000    0.0810842000   -1.2526663000
H        1.8645936000    0.4054543000   -2.0882742000
18   
Iteration 1 Energy -376.53758429
C        0.1570766941    0.0842575204   -0.0600580963
C       -0.5517863156   -0.8584853805   -0.8751630081
C       -1.9696253316   -0.9037948732   -0.8251803967
C       -2.6823653488   -0.0205745398    0.0370424129
C       -1.9750636456    0.8981605371    0.8668720594
C       -0.5567663255    0.9395769303    0.8416665910
C        1.6731117643    0.0512921326   -0.0295677117
N        2.3280633354   -0.2898159094    1.1360968228
N        2.3930417000    0.2179030591   -1.1946366964
H        0.0043267920   -1.5572206626   -1.5298755007
H       -2.5178557072   -1.6334956443   -1.4524853312
H       -3.7896329590   -0.0546120650    0.0692735965
H       -2.5310073494    1.5794606446    1.5400286560
H       -0.0081045598    1.6535387438    1.4863359403
H        3.3788331632   -0.2925871552    1.2192400208
H        1.7663545543   -0.4696615157    2.0073532559
H        3.4400935609    0.1101828631   -1.2455686013
H        1.8870320562    0.4908310282   -2.0755210311
18   
Iteration 2 Energy -376.53689232
C        0.1516592666    0.0877389902   -0.0665547618
C       -0.5464973913   -0.8778231837   -0.8636505711
C       -1.9640070260   -0.9198131843   -0.8044845176
C       -2.6772425575   -0.0210907736    0.0411604501
C       -1.9751560931    0.9175393809    0.8525991765
C       -0.5571436329    0.9606204486    0.8222708098
C        1.6687886249    0.0514666346   -0.0285309077
N        2.3210282149   -0.3328111636    1.1251997564
N        2.3928433442    0.2548407807   -1.1848904439
H        0.0111255603   -1.5867762599   -1.5062406940
H       -2.5135404360   -1.6626985458   -1.4148358366
H       -3.7842762096   -0.0585756174    0.0752662915
H       -2.5321855313    1.6096664879    1.5137130828
H       -0.0064306133    1.6867408449    1.4515101090
H        3.3715378393   -0.3434752198    1.2140192597
H        1.7554069485   -0.5341040502    1.9893690327
H        3.4402962546    0.1491925469   -1.2362691854
H        1.8901215589    0.5618995626   -2.0566212679
18   
Iteration 3 Energy -376.53587388
C        0.1501881423    0.0894180734   -0.0702257977
C       -0.5497698217   -0.9034165069   -0.8307483989
C       -1.9676584580   -0.9484004816   -0.7715252161
C       -2.6798676975   -0.0226508215    0.0440696042
C       -1.9764616584    0.9434556437    0.8206516899
C       -0.5581401923    0.9903187119    0.7893386691
C        1.6711154480    0.0458736101   -0.0275293651
N        2.3206392178   -0.4044721622    1.1033315427
N        2.4006201535    0.3175408591   -1.1657289946
H        0.0084939890   -1.6290777696   -1.4536656839
H       -2.5154824857   -1.7124342327   -1.3568718960
H       -3.7866767237   -0.0600674043    0.0817035958
H       -2.5338611253    1.6557588604    1.4595745694
H       -0.0080801397    1.7370789679    1.3944426934
H        3.3707914038   -0.4259009108    1.1995991581
H        1.7502259701   -0.6379359599    1.9565858361
H        3.4496148527    0.2222334826   -1.2152232389
H        1.9024207630    0.6803462476   -2.0189230215
18   
Iteration 4 Energy -376.53598370
C        0.1503761429    0.0634561647   -0.0558669860
C       -0.5568813007   -0.9264605138   -0.8113622666
C       -1.9761611016   -0.9586895882   -0.7609478786
C       -2.6841276506   -0.0176333041    0.0399876513
C       -1.9743151565    0.9538812323    0.8033059577
C       -0.5548132896    0.9883252748    0.7782189825
C        1.6761719143    0.0208839760   -0.0281174614
N        2.3285541077   -0.4333689763    1.0986372351
N        2.4005673139    0.3457717693   -1.1550907503
H       -0.0026485236   -1.6578354438   -1.4308883875
H       -2.5270925259   -1.7229732984   -1.3430783912
H       -3.7912940569   -0.0443508878    0.0730339677
H       -2.5277902937    1.6818279316    1.4278445362
H       -0.0013536675    1.7412942556    1.3721149274
H        3.3795341953   -0.4386674432    1.1918100446
H        1.7622835597   -0.6730801734    1.9534597783
H        3.4525581790    0.2838265035   -1.2030236962
H        1.8950286722    0.7252008409   -1.9970540569
18   
Iteration 5 Energy -376.53600616
C        0.1494337632    0.0580025089   -0.0474209595
C       -0.5564338383   -0.9305360781   -0.8055765243
C       -1.9759323833   -0.9606281141   -0.7625316248
C       -2.6825155535   -0.0149625655    0.0343994374
C       -1.9733289782    0.9562787937    0.7988444265
C       -0.5537005481    0.9889713795    0.7808357018
C        1.6751769870    0.0210905593   -0.0228135184
N        2.3370298779   -0.4346245432    1.0974825291
N        2.3918273052    0.3525806722   -1.1519888013
H       -0.0009412864   -1.6646213397   -1.4206981732
H       -2.5266712962   -1.7241468668   -1.3458617291
H       -3.7898792606   -0.0376963179    0.0632593460
H       -2.5278656801    1.6874633444    1.4186309883
H       -0.0008934428    1.7417251157    1.3756722427
H        3.3877143756   -0.4418099382    1.1938415726
H        1.7722609172   -0.6868813528    1.9495117195
H        3.4438756330    0.2976317770   -1.2051814134
H        1.8788910931    0.7220157227   -1.9938107988
18   
Iteration 6 Energy -376.53600758
C        0.1503870313    0.0568662671   -0.0477319010
C       -0.5569749866   -0.9306466229   -0.8058283744
C       -1.9765192447   -0.9588174585   -0.7618861783
C       -2.6857451114   -0.0136692564    0.0331660341
C       -1.9754331204    0.9561876187    0.7979138070
C       -0.5556503940    0.9868914444    0.7794766662
C        1.6761348038    0.0210063796   -0.0207224932
N        2.3408625650   -0.4333373790    1.0984654757
N        2.3921488917    0.3538343403   -1.1499311546
H       -0.0025241185   -1.6666215683   -1.4196729583
H       -2.5270774729   -1.7226187596   -1.3449680872
H       -3.7931637741   -0.0362058347    0.0609125479
H       -2.5290391715    1.6877759203    1.4180413351
H       -0.0031696634    1.7385127170    1.3760129041
H        3.3918750446   -0.4395900974    1.1912539727
H        1.7784971584   -0.6882864980    1.9512427071
H        3.4441211089    0.2968480366   -1.2027128263
H        1.8790873371    0.7219458366   -1.9923140906
18   
Iteration 7 Energy -376.53601234
C        0.1501485701    0.0577326779   -0.0483693932
C       -0.5574152242   -0.9300847955   -0.8061762395
C       -1.9768351640   -0.9600867443   -0.7625044878
C       -2.6839783918   -0.0140677261    0.0332083672
C       -1.9744801400    0.9560551384    0.7983282619
C       -0.5547623390    0.9878422816    0.7800363599
C        1.6757614432    0.0215032448   -0.0209885650
N        2.3379299202   -0.4328407440    1.0997526970
N        2.3931989563    0.3546194114   -1.1495359909
H       -0.0025471219   -1.6662529662   -1.4194255948
H       -2.5276030120   -1.7242130788   -1.3450188788
H       -3.7913576973   -0.0365599277    0.0615239262
H       -2.5285781940    1.6869883315    1.4187800226
H       -0.0020426067    1.7389159754    1.3770812635
H        3.3890508941   -0.4397628778    1.1909164129
H        1.7752510943   -0.6875026791    1.9524253789
H        3.4449931077    0.2945366205   -1.2028865987
H        1.8808693359    0.7236439882   -1.9919954786
18   
Iteration 8 Energy -376.53601385
C        0.1503269870    0.0577081479   -0.0482606474
C       -0.5569689047   -0.9305467096   -0.8055450431
C       -1.9764158318   -0.9603812022   -0.7616062892
C       -2.6839754323   -0.0144023463    0.0338650271
C       -1.9736674086    0.9558702390    0.7981564017
C       -0.5539618584    0.9882715140    0.7800835150
C        1.6759759050    0.0217518757   -0.0216626853
N        2.3359512848   -0.4327185356    1.1002549815
N        2.3943355252    0.3564030124   -1.1492309402
H       -0.0020738402   -1.6666596969   -1.4188330137
H       -2.5270910010   -1.7246506682   -1.3440019476
H       -3.7913580462   -0.0369482389    0.0624497818
H       -2.5276670643    1.6870733527    1.4183654834
H       -0.0011250332    1.7396603160    1.3766172042
H        3.3866770416   -0.4423037478    1.1954265912
H        1.7705044351   -0.6881522251    1.9508493874
H        3.4460535432    0.2959504710   -1.2037742059
H        1.8817466076    0.7247614623   -1.9917817002
18   
Iteration 9 Energy -376.53601618
C        0.1501028092    0.0570608932   -0.0474350547
C       -0.5568290618   -0.9313207622   -0.8046197662
C       -1.9763409242   -0.9608007843   -0.7614339734
C       -2.6835378574   -0.0141773420    0.0337304267
C       -1.9742342828    0.9568363964    0.7981229440
C       -0.5545273379    0.9881672219    0.7799064076
C        1.6758713932    0.0214034793   -0.0205608883
N        2.3362419622   -0.4326481083    1.1011749423
N        2.3943198411    0.3586475749   -1.1471042985
H       -0.0017397275   -1.6674658419   -1.4176641789
H       -2.5270607027   -1.7249546234   -1.3439474062
H       -3.7909236283   -0.0366423083    0.0618051571
H       -2.5283488929    1.6885354519    1.4176856724
H       -0.0014896227    1.7397507535    1.3759584408
H        3.3869072001   -0.4433504362    1.1968573380
H        1.7704647513   -0.6908780651    1.9506920091
H        3.4460258812    0.2976503127   -1.2010455517
H        1.8817721907    0.7252518012   -1.9904202294
18   
Iteration 10 Energy -376.53601959
C        0.1491958907    0.0562767105   -0.0444574638
C       -0.5563320307   -0.9324021865   -0.8022664579
C       -1.9759845443   -0.9609205479   -0.7612749310
C       -2.6842692718   -0.0136442592    0.0321920102
C       -1.9753099524    0.9576883309    0.7966466933
C       -0.5556178837    0.9889288462    0.7808444020
C        1.6750700387    0.0207639081   -0.0156790354
N        2.3373276621   -0.4322462357    1.1051341201
N        2.3936215536    0.3636444138   -1.1400071130
H       -0.0005690866   -1.6688181529   -1.4143694436
H       -2.5260925306   -1.7250135484   -1.3444223245
H       -3.7917148167   -0.0355998779    0.0586057569
H       -2.5301159889    1.6902501907    1.4145685882
H       -0.0030319354    1.7410610004    1.3766280859
H        3.3883720108   -0.4441811906    1.1962266922
H        1.7736575860   -0.6983069267    1.9536056926
H        3.4451704166    0.2997052254   -1.1928117932
H        1.8812969551    0.7254617880   -1.9855025089
18   
Iteration 11 Energy -376.53602370
C        0.1495952206    0.0567598580   -0.0433958857
C       -0.5557197204   -0.9320645131   -0.8014121320
C       -1.9753761239   -0.9606826239   -0.7609763400
C       -2.6842857054   -0.0135073284    0.0318687040
C       -1.9764022082    0.9579907049    0.7969485783
C       -0.5566980814    0.9888779558    0.7814457188
C        1.6754271858    0.0215226870   -0.0130918807
N        2.3358552448   -0.4311566239    1.1089997095
N        2.3955417508    0.3657164408   -1.1362034662
H        0.0001860419   -1.6687434118   -1.4130868314
H       -2.5251238243   -1.7250063137   -1.3441642215
H       -3.7917343784   -0.0357703846    0.0575717353
H       -2.5316542782    1.6903554096    1.4147079904
H       -0.0046578596    1.7410559313    1.3776845189
H        3.3867947067   -0.4459629804    1.2004000857
H        1.7710169319   -0.6999129858    1.9557827338
H        3.4468672554    0.2998041897   -1.1910304143
H        1.8830913932    0.7253175533   -1.9825722264
18   
Iteration 12 Energy -376.53603013
C        0.1501185747    0.0577598388   -0.0407623740
C       -0.5541142703   -0.9314364620   -0.7995622574
C       -1.9737584148   -0.9602462465   -0.7603400256
C       -2.6842146270   -0.0135332181    0.0315552891
C       -1.9777451081    0.9580249747    0.7977238135
C       -0.5579987906    0.9890949987    0.7835251764
C        1.6757366527    0.0233857090   -0.0090248450
N        2.3317873843   -0.4297094842    1.1155410098
N        2.3981036993    0.3685285413   -1.1307147969
H        0.0023945279   -1.6683232518   -1.4104652296
H       -2.5226303449   -1.7248844948   -1.3439346027
H       -3.7916809043   -0.0362713698    0.0559798483
H       -2.5338970784    1.6899802183    1.4151495982
H       -0.0070928305    1.7413986573    1.3806758064
H        3.3823564216   -0.4494110752    1.2093823246
H        1.7638399893   -0.7011276611    1.9593269544
H        3.4493178264    0.2993884897   -1.1839827882
H        1.8876309842    0.7262168168   -1.9791250144
18   
Iteration 13 Energy -376.53604128
C        0.1499610938    0.0575908827   -0.0326306568
C       -0.5508748829   -0.9316620606   -0.7945531830
C       -1.9705979416   -0.9592219352   -0.7603669960
C       -2.6843801159   -0.0123916508    0.0285704501
C       -1.9808950159    0.9590165825    0.7976250136
C       -0.5610192364    0.9892939974    0.7885559778
C        1.6753048725    0.0247816847    0.0021546362
N        2.3274662553   -0.4295749501    1.1283114789
N        2.4001046475    0.3719011726   -1.1174556408
H        0.0075755095   -1.6691899460   -1.4029175534
H       -2.5175395955   -1.7236785747   -1.3459861777
H       -3.7919457997   -0.0347878549    0.0485204895
H       -2.5390770543    1.6912742402    1.4128530914
H       -0.0123838689    1.7416155809    1.3877781297
H        3.3778726523   -0.4528910753    1.2225731001
H        1.7574914472   -0.7058139519    1.9691304458
H        3.4512985338    0.3036308723   -1.1726227929
H        1.8896149998    0.7275227361   -1.9666780243
18   
Iteration 14 Energy -376.53605565
C        0.1491428885    0.0553801770   -0.0199791274
C       -0.5468182030   -0.9331264539   -0.7872224391
C       -1.9666543611   -0.9576609622   -0.7607931277
C       -2.6847415533   -0.0099585939    0.0235120784
C       -1.9853195394    0.9607141246    0.7970616379
C       -0.5653005188    0.9888615930    0.7958504343
C        1.6741914033    0.0259973273    0.0184693932
N        2.3228335763   -0.4310240644    1.1454289381
N        2.4005409474    0.3756375897   -1.0993195639
H        0.0143563499   -1.6721527487   -1.3912667793
H       -2.5112828705   -1.7211729122   -1.3497525617
H       -3.7924492039   -0.0310766337    0.0362722265
H       -2.5461041885    1.6940427979    1.4086441406
H       -0.0195067182    1.7405330863    1.3984752793
H        3.3731081654   -0.4538988037    1.2406432395
H        1.7513661246   -0.7131144780    1.9832611950
H        3.4521059367    0.3117044963   -1.1515715788
H        1.8911822222    0.7307716124   -1.9493672351
18   
Iteration 15 Energy -376.53606308
C        0.1477828265    0.0515832332   -0.0111454828
C       -0.5451023803   -0.9355638886   -0.7824064425
C       -1.9650527127   -0.9566524666   -0.7617328818
C       -2.6851964355   -0.0074380891    0.0192991537
C       -1.9879522962    0.9623414652    0.7960208488
C       -0.5678873875    0.9876381693    0.8004120020
C        1.6727025689    0.0252399169    0.0293626459
N        2.3214667104   -0.4339096965    1.1551696466
N        2.3986882329    0.3769487974   -1.0877190106
H        0.0176984087   -1.6760803106   -1.3831070662
H       -2.5087155128   -1.7187484258   -1.3533833161
H       -3.7929919044   -0.0267419424    0.0267447555
H       -2.5499521647    1.6972398125    1.4046213902
H       -0.0231615145    1.7381695483    1.4053806307
H        3.3718406475   -0.4499211476    1.2508692944
H        1.7507666035   -0.7187289162    1.9926435269
H        3.4507906214    0.3204885496   -1.1366969486
H        1.8892714090    0.7338092752   -1.9369341131
18   
Iteration 16 Energy -376.53606391
C        0.1471732209    0.0500972443   -0.0108589158
C       -0.5458601996   -0.9364512157   -0.7824903075
C       -1.9658613767   -0.9565533069   -0.7621277227
C       -2.6855195468   -0.0068140356    0.0187697602
C       -1.9879607386    0.9626300305    0.7957078140
C       -0.5679353300    0.9869945364    0.8003260697
C        1.6721183388    0.0244911750    0.0296914109
N        2.3219039623   -0.4349049245    1.1547946655
N        2.3975549955    0.3768885720   -1.0874206598
H        0.0167460216   -1.6773215613   -1.3829394690
H       -2.5099193537   -1.7181324443   -1.3540754031
H       -3.7933294451   -0.0255051209    0.0258701727
H       -2.5496814878    1.6979957274    1.4040147753
H       -0.0226951634    1.7370525424    1.4054031166
H        3.3723216188   -0.4469348303    1.2508047151
H        1.7519432233   -0.7194796907    1.9928744754
H        3.4498146328    0.3227254280   -1.1350375244
H        1.8880110423    0.7343065940   -1.9363106264
