
    -----------------------------------------------------------------------
          Psi4: An Open-Source Ab Initio Electronic Structure Package
                               Psi4 1.3.2 release

                         Git: Rev {HEAD} ecbda83 


    R. M. Parrish, L. A. Burns, D. G. A. Smith, A. C. Simmonett,
    A. E. DePrince III, E. G. Hohenstein, U. Bozkaya, A. Yu. Sokolov,
    R. Di Remigio, R. M. Richard, J. F. Gonthier, A. M. James,
    H. R. McAlexander, A. Kumar, M. Saitow, X. Wang, B. P. Pritchard,
    P. Verma, H. F. Schaefer III, K. Patkowski, R. A. King, E. F. Valeev,
    F. A. Evangelista, J. M. Turney, T. D. Crawford, and C. D. Sherrill,
    J. Chem. Theory Comput. 13(7) pp 3185--3197 (2017).
    (doi: 10.1021/acs.jctc.7b00174)


                         Additional Contributions by
    P. Kraus, H. Kruse, M. H. Lechner, M. C. Schieber, R. A. Shaw,
    A. Alenaizan, R. Galvelis, Z. L. Glick, S. Lehtola, and J. P. Misiewicz

    -----------------------------------------------------------------------


    Psi4 started on: Friday, 14 May 2021 09:24AM

    Process ID: 683
    Host:       aaojha
    PSIDATADIR: /home/aaojha/anaconda3/envs/torsiondrive/share/psi4
    Memory:     500.0 MiB
    Threads:    1
    
  ==> Input File <==

--------------------------------------------------------------------------
memory 50 GB
molecule {
1 1
C           0.1600669    -0.0284197     0.0403367
C          -0.5586029    -1.1919455    -0.3890580
C          -1.9774962    -1.1630866    -0.4089582
C          -2.6759178     0.0129198    -0.0075575
C          -1.9567152     1.1738824     0.4023084
C          -0.5377339     1.1686731     0.4082211
C           1.6757798    -0.0223013    -0.0107261
N           2.3982499    -0.9507126     0.7104676
N           2.3373857     0.9695921    -0.7047619
H          -0.0131633    -2.0990616    -0.7147421
H          -2.5391248    -2.0565679    -0.7446104
H          -3.7840109     0.0270789    -0.0197624
H          -2.5028879     2.0859369     0.7126685
H           0.0235495     2.0672618     0.7303694
H           3.4487747    -1.0232078     0.6639639
H           1.8833732    -1.6776022     1.2703104
H           3.3869410     1.0644767    -0.7112284
H           1.7799766     1.6581846    -1.2718969
}
set {
basis STO-3G
}
gradient('BLYP')
--------------------------------------------------------------------------

  Memory set to  46.566 GiB by Python driver.
gradient() will perform analytic gradient computation.

*** tstart() called on aaojha
*** at Fri May 14 09:24:43 2021

   => Loading Basis Set <=

    Name: STO-3G
    Role: ORBITAL
    Keyword: BASIS
    atoms 1-7   entry C          line    61 file /home/aaojha/anaconda3/envs/torsiondrive/share/psi4/basis/sto-3g.gbs 
    atoms 8-9   entry N          line    71 file /home/aaojha/anaconda3/envs/torsiondrive/share/psi4/basis/sto-3g.gbs 
    atoms 10-18 entry H          line    19 file /home/aaojha/anaconda3/envs/torsiondrive/share/psi4/basis/sto-3g.gbs 


         ---------------------------------------------------------
                                   SCF
               by Justin Turney, Rob Parrish, Andy Simmonett
                          and Daniel G. A. Smith
                              RKS Reference
                        1 Threads,  47683 MiB Core
         ---------------------------------------------------------

  ==> Geometry <==

    Molecular point group: c1
    Full point group: C1

    Geometry (in Angstrom), charge = 1, multiplicity = 1:

       Center              X                  Y                   Z               Mass       
    ------------   -----------------  -----------------  -----------------  -----------------
         C            0.180197754299    -0.026007182887     0.036957833520    12.000000000000
         C           -0.538472045701    -1.189532982887    -0.392436866480    12.000000000000
         C           -1.957365345701    -1.160674082887    -0.412337066480    12.000000000000
         C           -2.655786945701     0.015332317113    -0.010936366480    12.000000000000
         C           -1.936584345701     1.176294917113     0.398929533520    12.000000000000
         C           -0.517603045701     1.171085617113     0.404842233520    12.000000000000
         C            1.695910654299    -0.019888782887    -0.014104966480    12.000000000000
         N            2.418380754299    -0.948300082887     0.707088733520    14.003074004430
         N            2.357516554299     0.972004617113    -0.708140766480    14.003074004430
         H            0.006967554299    -2.096649082887    -0.718120966480     1.007825032230
         H           -2.518993945701    -2.054155382887    -0.747989266480     1.007825032230
         H           -3.763880045701     0.029491417113    -0.023141266480     1.007825032230
         H           -2.482757045701     2.088349417113     0.709289633520     1.007825032230
         H            0.043680354299     2.069674317113     0.726990533520     1.007825032230
         H            3.468905554299    -1.020795282887     0.660585033520     1.007825032230
         H            1.903504054299    -1.675189682887     1.266931533520     1.007825032230
         H            3.407071854299     1.066889217113    -0.714607266480     1.007825032230
         H            1.800107454299     1.660597117113    -1.275275766480     1.007825032230

  Running in c1 symmetry.

  Rotational constants: A =      0.11595  B =      0.03645  C =      0.03054 [cm^-1]
  Rotational constants: A =   3476.18596  B =   1092.61894  C =    915.54136 [MHz]
  Nuclear repulsion =  405.940293716923350

  Charge       = 1
  Multiplicity = 1
  Electrons    = 64
  Nalpha       = 32
  Nbeta        = 32

  ==> Algorithm <==

  SCF Algorithm Type is DF.
  DIIS enabled.
  MOM disabled.
  Fractional occupation disabled.
  Guess Type is SAD.
  Energy threshold   = 1.00e-08
  Density threshold  = 1.00e-08
  Integral threshold = 0.00e+00

  ==> Primary Basis <==

  Basis Set: STO-3G
    Blend: STO-3G
    Number of shells: 36
    Number of basis function: 54
    Number of Cartesian functions: 54
    Spherical Harmonics?: true
    Max angular momentum: 1

  ==> DFT Potential <==

   => Composite Functional: BLYP <= 

    BLYP GGA Exchange-Correlation Functional

    P.J. Stephens et. al., J. Phys. Chem., 98, 11623-11627, 1994
    B. Miehlich et. al., Chem. Phys. Lett., 157(3), 200-206 1989


    Deriv               =              1
    GGA                 =           TRUE
    Meta                =          FALSE

    Exchange Hybrid     =          FALSE
    MP2 Hybrid          =          FALSE

   => Exchange Functionals <=

    1.0000     XC_GGA_X_B88

   => Correlation Functionals <=

    1.0000     XC_GGA_C_LYP

   => Molecular Quadrature <=

    Radial Scheme          =       TREUTLER
    Pruning Scheme         =           FLAT
    Nuclear Scheme         =       TREUTLER

    BS radius alpha        =              1
    Pruning alpha          =              1
    Radial Points          =             75
    Spherical Points       =            302
    Total Points           =         395614
    Total Blocks           =           2956
    Max Points             =            256
    Max Functions          =             51

   => Loading Basis Set <=

    Name: (STO-3G AUX)
    Role: JKFIT
    Keyword: DF_BASIS_SCF
    atoms 1-7   entry C          line   203 file /home/aaojha/anaconda3/envs/torsiondrive/share/psi4/basis/def2-svp-jkfit.gbs 
    atoms 8-9   entry N          line   263 file /home/aaojha/anaconda3/envs/torsiondrive/share/psi4/basis/def2-svp-jkfit.gbs 
    atoms 10-18 entry H          line    23 file /home/aaojha/anaconda3/envs/torsiondrive/share/psi4/basis/def2-svp-jkfit.gbs 

  ==> Pre-Iterations <==

   -------------------------------------------------------
    Irrep   Nso     Nmo     Nalpha   Nbeta   Ndocc  Nsocc
   -------------------------------------------------------
     A         54      54       0       0       0       0
   -------------------------------------------------------
    Total      54      54      32      32      32       0
   -------------------------------------------------------

  ==> Integral Setup <==

  DFHelper Memory: AOs need 0.024 GiB; user supplied 34.424 GiB. Using in-core AOs.

  ==> MemDFJK: Density-Fitted J/K Matrices <==

    J tasked:                   Yes
    K tasked:                    No
    wK tasked:                   No
    OpenMP threads:               1
    Memory [MiB]:             35249
    Algorithm:                 Core
    Schwarz Cutoff:           1E-12
    Mask sparsity (%):       1.8519
    Fitting Condition:        1E-10

   => Auxiliary Basis Set <=

  Basis Set: (STO-3G AUX)
    Blend: DEF2-SVP-JKFIT
    Number of shells: 279
    Number of basis function: 841
    Number of Cartesian functions: 989
    Spherical Harmonics?: true
    Max angular momentum: 4

  Cached 100.0% of DFT collocation blocks in 0.501 [GiB].

  Minimum eigenvalue in the overlap matrix is 1.8793099273E-01.
  Using Symmetric Orthogonalization.

  SCF Guess: Superposition of Atomic Densities via on-the-fly atomic UHF.

  ==> Iterations <==

                           Total Energy        Delta E     RMS |[F,P]|

   @DF-RKS iter SAD:  -373.14358651282225   -3.73144e+02   0.00000e+00 
   @DF-RKS iter   1:  -376.48271842507256   -3.33913e+00   5.12221e-03 DIIS
   @DF-RKS iter   2:  -376.33489920108468    1.47819e-01   1.01396e-02 DIIS
   @DF-RKS iter   3:  -376.53361542699406   -1.98716e-01   1.56746e-03 DIIS
   @DF-RKS iter   4:  -376.53775835249348   -4.14293e-03   6.73783e-04 DIIS
   @DF-RKS iter   5:  -376.53872291241203   -9.64560e-04   1.66875e-04 DIIS
   @DF-RKS iter   6:  -376.53877805342745   -5.51410e-05   3.98708e-05 DIIS
   @DF-RKS iter   7:  -376.53878068989934   -2.63647e-06   1.59168e-05 DIIS
   @DF-RKS iter   8:  -376.53878110818482   -4.18285e-07   5.95137e-06 DIIS
   @DF-RKS iter   9:  -376.53878117788008   -6.96953e-08   1.78156e-06 DIIS
   @DF-RKS iter  10:  -376.53878118370528   -5.82520e-09   4.39413e-07 DIIS
   @DF-RKS iter  11:  -376.53878118411308   -4.07795e-10   1.24938e-07 DIIS
   @DF-RKS iter  12:  -376.53878118414104   -2.79670e-11   3.03458e-08 DIIS
   @DF-RKS iter  13:  -376.53878118414320   -2.16005e-12   7.71139e-09 DIIS
  Energy and wave function converged.


  ==> Post-Iterations <==

    Orbital Energies [Eh]
    ---------------------

    Doubly Occupied:                                                      

       1A    -14.129724     2A    -14.129572     3A    -10.096018  
       4A     -9.944510     5A     -9.918653     6A     -9.918192  
       7A     -9.906445     8A     -9.905087     9A     -9.904692  
      10A     -1.046618    11A     -0.968399    12A     -0.876425  
      13A     -0.801798    14A     -0.775328    15A     -0.736603  
      16A     -0.679082    17A     -0.662674    18A     -0.642295  
      19A     -0.627914    20A     -0.596635    21A     -0.568522  
      22A     -0.528805    23A     -0.515087    24A     -0.481618  
      25A     -0.480716    26A     -0.473050    27A     -0.415554  
      28A     -0.410942    29A     -0.404890    30A     -0.368930  
      31A     -0.319019    32A     -0.313222  

    Virtual:                                                              

      33A     -0.183176    34A     -0.105929    35A     -0.100610  
      36A      0.010193    37A      0.022490    38A      0.051017  
      39A      0.056136    40A      0.114847    41A      0.118861  
      42A      0.165007    43A      0.187549    44A      0.194909  
      45A      0.232481    46A      0.235898    47A      0.256216  
      48A      0.281305    49A      0.348647    50A      0.352377  
      51A      0.360122    52A      0.369938    53A      0.496019  
      54A      0.540398  

    Final Occupation by Irrep:
              A 
    DOCC [    32 ]

  @DF-RKS Final Energy:  -376.53878118414320

   => Energetics <=

    Nuclear Repulsion Energy =            405.9402937169233496
    One-Electron Energy =               -1302.8572204857027828
    Two-Electron Energy =                 574.6709833597291208
    DFT Exchange-Correlation Energy =     -54.2928377750929414
    Empirical Dispersion Energy =           0.0000000000000000
    VV10 Nonlocal Energy =                  0.0000000000000000
    Total Energy =                       -376.5387811841432040

Computation Completed


Properties will be evaluated at   0.000000,   0.000000,   0.000000 [a0]

Properties computed using the SCF density matrix

  Nuclear Dipole Moment: [e a0]
     X:     1.7341      Y:     0.0639      Z:    -0.1081

  Electronic Dipole Moment: [e a0]
     X:     0.9872      Y:    -0.0771      Z:     0.0389

  Dipole Moment: [e a0]
     X:     2.7214      Y:    -0.0133      Z:    -0.0693     Total:     2.7223

  Dipole Moment: [D]
     X:     6.9170      Y:    -0.0337      Z:    -0.1760     Total:     6.9193


*** tstop() called on aaojha at Fri May 14 09:24:50 2021
Module time:
	user time   =       7.38 seconds =       0.12 minutes
	system time =       0.18 seconds =       0.00 minutes
	total time  =          7 seconds =       0.12 minutes
Total time:
	user time   =       7.38 seconds =       0.12 minutes
	system time =       0.18 seconds =       0.00 minutes
	total time  =          7 seconds =       0.12 minutes

*** tstart() called on aaojha
*** at Fri May 14 09:24:50 2021


         ------------------------------------------------------------
                                   SCF GRAD                          
                          Rob Parrish, Justin Turney,                
                       Andy Simmonett, and Alex Sokolov              
         ------------------------------------------------------------

  ==> Geometry <==

    Molecular point group: c1
    Full point group: C1

    Geometry (in Angstrom), charge = 1, multiplicity = 1:

       Center              X                  Y                   Z               Mass       
    ------------   -----------------  -----------------  -----------------  -----------------
         C            0.180197754299    -0.026007182887     0.036957833520    12.000000000000
         C           -0.538472045701    -1.189532982887    -0.392436866480    12.000000000000
         C           -1.957365345701    -1.160674082887    -0.412337066480    12.000000000000
         C           -2.655786945701     0.015332317113    -0.010936366480    12.000000000000
         C           -1.936584345701     1.176294917113     0.398929533520    12.000000000000
         C           -0.517603045701     1.171085617113     0.404842233520    12.000000000000
         C            1.695910654299    -0.019888782887    -0.014104966480    12.000000000000
         N            2.418380754299    -0.948300082887     0.707088733520    14.003074004430
         N            2.357516554299     0.972004617113    -0.708140766480    14.003074004430
         H            0.006967554299    -2.096649082887    -0.718120966480     1.007825032230
         H           -2.518993945701    -2.054155382887    -0.747989266480     1.007825032230
         H           -3.763880045701     0.029491417113    -0.023141266480     1.007825032230
         H           -2.482757045701     2.088349417113     0.709289633520     1.007825032230
         H            0.043680354299     2.069674317113     0.726990533520     1.007825032230
         H            3.468905554299    -1.020795282887     0.660585033520     1.007825032230
         H            1.903504054299    -1.675189682887     1.266931533520     1.007825032230
         H            3.407071854299     1.066889217113    -0.714607266480     1.007825032230
         H            1.800107454299     1.660597117113    -1.275275766480     1.007825032230

  Nuclear repulsion =  405.940293716923350

  ==> Basis Set <==

  Basis Set: STO-3G
    Blend: STO-3G
    Number of shells: 36
    Number of basis function: 54
    Number of Cartesian functions: 54
    Spherical Harmonics?: true
    Max angular momentum: 1

  ==> DFJKGrad: Density-Fitted SCF Gradients <==

    Gradient:                    1
    J tasked:                  Yes
    K tasked:                   No
    wK tasked:                  No
    OpenMP threads:              1
    Integrals threads:           1
    Memory [MiB]:            35762
    Schwarz Cutoff:          0E+00
    Fitting Condition:       1E-10

   => Auxiliary Basis Set <=

  Basis Set: (STO-3G AUX)
    Blend: DEF2-SVP-JKFIT
    Number of shells: 279
    Number of basis function: 841
    Number of Cartesian functions: 989
    Spherical Harmonics?: true
    Max angular momentum: 4

  ==> DFT Potential <==

   => Composite Functional: BLYP <= 

    BLYP GGA Exchange-Correlation Functional

    P.J. Stephens et. al., J. Phys. Chem., 98, 11623-11627, 1994
    B. Miehlich et. al., Chem. Phys. Lett., 157(3), 200-206 1989


    Deriv               =              1
    GGA                 =           TRUE
    Meta                =          FALSE

    Exchange Hybrid     =          FALSE
    MP2 Hybrid          =          FALSE

   => Exchange Functionals <=

    1.0000     XC_GGA_X_B88

   => Correlation Functionals <=

    1.0000     XC_GGA_C_LYP

   => Molecular Quadrature <=

    Radial Scheme          =       TREUTLER
    Pruning Scheme         =           FLAT
    Nuclear Scheme         =       TREUTLER

    BS radius alpha        =              1
    Pruning alpha          =              1
    Radial Points          =             75
    Spherical Points       =            302
    Total Points           =         395614
    Total Blocks           =           2956
    Max Points             =            256
    Max Functions          =             51


  -Total Gradient:
     Atom            X                  Y                   Z
    ------   -----------------  -----------------  -----------------
       1        0.000288807795    -0.001081805674     0.007875160280
       2       -0.000124009300     0.001581696456    -0.004251418055
       3        0.000062915607     0.000098940048     0.000040924845
       4       -0.000080088667    -0.000000929954    -0.000004062835
       5       -0.000001036294     0.000015717805     0.000010689000
       6       -0.000028741953    -0.000039599972    -0.000038140719
       7       -0.000218931616    -0.003452307183    -0.007250839040
       8        0.000096015785     0.002862918583     0.003629201391
       9        0.000013269061    -0.000118088632    -0.000128055091
      10        0.000014653879    -0.000000881359     0.000004581139
      11        0.000002803718     0.000008611194     0.000002713350
      12       -0.000006654812     0.000009455567     0.000001501493
      13       -0.000009518581    -0.000003244105    -0.000003805110
      14       -0.000006152290    -0.000006048190     0.000007206871
      15        0.000000159286     0.000047606322     0.000003593797
      16       -0.000000018027     0.000013260516     0.000018998165
      17       -0.000003294815     0.000033553893     0.000046154102
      18       -0.000004397934     0.000022936540     0.000037672564


*** tstop() called on aaojha at Fri May 14 09:24:53 2021
Module time:
	user time   =       2.13 seconds =       0.04 minutes
	system time =       0.01 seconds =       0.00 minutes
	total time  =          3 seconds =       0.05 minutes
Total time:
	user time   =       9.51 seconds =       0.16 minutes
	system time =       0.19 seconds =       0.00 minutes
	total time  =         10 seconds =       0.17 minutes

    Psi4 stopped on: Friday, 14 May 2021 09:24AM
    Psi4 wall time for execution: 0:00:09.75

*** Psi4 exiting successfully. Buy a developer a beer!
