
    -----------------------------------------------------------------------
          Psi4: An Open-Source Ab Initio Electronic Structure Package
                               Psi4 1.3.2 release

                         Git: Rev {HEAD} ecbda83 


    R. M. Parrish, L. A. Burns, D. G. A. Smith, A. C. Simmonett,
    A. E. DePrince III, E. G. Hohenstein, U. Bozkaya, A. Yu. Sokolov,
    R. Di Remigio, R. M. Richard, J. F. Gonthier, A. M. James,
    H. R. McAlexander, A. Kumar, M. Saitow, X. Wang, B. P. Pritchard,
    P. Verma, H. F. Schaefer III, K. Patkowski, R. A. King, E. F. Valeev,
    F. A. Evangelista, J. M. Turney, T. D. Crawford, and C. D. Sherrill,
    J. Chem. Theory Comput. 13(7) pp 3185--3197 (2017).
    (doi: 10.1021/acs.jctc.7b00174)


                         Additional Contributions by
    P. Kraus, H. Kruse, M. H. Lechner, M. C. Schieber, R. A. Shaw,
    A. Alenaizan, R. Galvelis, Z. L. Glick, S. Lehtola, and J. P. Misiewicz

    -----------------------------------------------------------------------


    Psi4 started on: Friday, 14 May 2021 09:59AM

    Process ID: 14560
    Host:       aaojha
    PSIDATADIR: /home/aaojha/anaconda3/envs/torsiondrive/share/psi4
    Memory:     500.0 MiB
    Threads:    1
    
  ==> Input File <==

--------------------------------------------------------------------------
memory 50 GB
molecule {
1 1
C           0.1529192    -0.0267916     0.0057192
C          -0.5793988    -0.6670462    -1.0546347
C          -1.9961400    -0.6501991    -1.0473146
C          -2.6996790     0.0098720     0.0034696
C          -1.9808709     0.6554343     1.0528143
C          -0.5639992     0.6411299     1.0595319
C           1.6601721    -0.0190020    -0.0092549
N           2.3844196     0.3074659     1.1239445
N           2.3621943    -0.3031386    -1.1669810
H          -0.0529168    -1.2129055    -1.8613795
H          -2.5547893    -1.1559006    -1.8588497
H          -3.8082773     0.0226929     0.0035444
H          -2.5275293     1.1776911     1.8620321
H          -0.0249757     1.1781858     1.8637322
H           3.4359570     0.3389401     1.1268733
H           1.8962242     0.4182593     2.0465689
H           3.4136254    -0.3205623    -1.1941125
H           1.8513276    -0.4471963    -2.0724475
}
set {
basis STO-3G
}
gradient('BLYP')
--------------------------------------------------------------------------

  Memory set to  46.566 GiB by Python driver.
gradient() will perform analytic gradient computation.

*** tstart() called on aaojha
*** at Fri May 14 09:59:46 2021

   => Loading Basis Set <=

    Name: STO-3G
    Role: ORBITAL
    Keyword: BASIS
    atoms 1-7   entry C          line    61 file /home/aaojha/anaconda3/envs/torsiondrive/share/psi4/basis/sto-3g.gbs 
    atoms 8-9   entry N          line    71 file /home/aaojha/anaconda3/envs/torsiondrive/share/psi4/basis/sto-3g.gbs 
    atoms 10-18 entry H          line    19 file /home/aaojha/anaconda3/envs/torsiondrive/share/psi4/basis/sto-3g.gbs 


         ---------------------------------------------------------
                                   SCF
               by Justin Turney, Rob Parrish, Andy Simmonett
                          and Daniel G. A. Smith
                              RKS Reference
                        1 Threads,  47683 MiB Core
         ---------------------------------------------------------

  ==> Geometry <==

    Molecular point group: c1
    Full point group: C1

    Geometry (in Angstrom), charge = 1, multiplicity = 1:

       Center              X                  Y                   Z               Mass       
    ------------   -----------------  -----------------  -----------------  -----------------
         C            0.185752830600    -0.021675510192     0.010372202488    12.000000000000
         C           -0.546565169400    -0.661930110192    -1.049981697512    12.000000000000
         C           -1.963306369400    -0.645083010192    -1.042661597512    12.000000000000
         C           -2.666845369400     0.014988089808     0.008122602488    12.000000000000
         C           -1.948037269400     0.660550389808     1.057467302488    12.000000000000
         C           -0.531165569400     0.646245989808     1.064184902488    12.000000000000
         C            1.693005730600    -0.013885910192    -0.004601897512    12.000000000000
         N            2.417253230600     0.312581989808     1.128597502488    14.003074004430
         N            2.395027930600    -0.298022510192    -1.162327997512    14.003074004430
         H           -0.020083169400    -1.207789410192    -1.856726497512     1.007825032230
         H           -2.521955669400    -1.150784510192    -1.854196697512     1.007825032230
         H           -3.775443669400     0.027808989808     0.008197402488     1.007825032230
         H           -2.494695669400     1.182807189808     1.866685102488     1.007825032230
         H            0.007857930600     1.183301889808     1.868385202488     1.007825032230
         H            3.468790630600     0.344056189808     1.131526302488     1.007825032230
         H            1.929057830600     0.423375389808     2.051221902488     1.007825032230
         H            3.446459030600    -0.315446210192    -1.189459497512     1.007825032230
         H            1.884161230600    -0.442080210192    -2.067794497512     1.007825032230

  Running in c1 symmetry.

  Rotational constants: A =      0.11657  B =      0.03808  C =      0.02901 [cm^-1]
  Rotational constants: A =   3494.62237  B =   1141.74869  C =    869.74612 [MHz]
  Nuclear repulsion =  406.322337007587521

  Charge       = 1
  Multiplicity = 1
  Electrons    = 64
  Nalpha       = 32
  Nbeta        = 32

  ==> Algorithm <==

  SCF Algorithm Type is DF.
  DIIS enabled.
  MOM disabled.
  Fractional occupation disabled.
  Guess Type is SAD.
  Energy threshold   = 1.00e-08
  Density threshold  = 1.00e-08
  Integral threshold = 0.00e+00

  ==> Primary Basis <==

  Basis Set: STO-3G
    Blend: STO-3G
    Number of shells: 36
    Number of basis function: 54
    Number of Cartesian functions: 54
    Spherical Harmonics?: true
    Max angular momentum: 1

  ==> DFT Potential <==

   => Composite Functional: BLYP <= 

    BLYP GGA Exchange-Correlation Functional

    P.J. Stephens et. al., J. Phys. Chem., 98, 11623-11627, 1994
    B. Miehlich et. al., Chem. Phys. Lett., 157(3), 200-206 1989


    Deriv               =              1
    GGA                 =           TRUE
    Meta                =          FALSE

    Exchange Hybrid     =          FALSE
    MP2 Hybrid          =          FALSE

   => Exchange Functionals <=

    1.0000     XC_GGA_X_B88

   => Correlation Functionals <=

    1.0000     XC_GGA_C_LYP

   => Molecular Quadrature <=

    Radial Scheme          =       TREUTLER
    Pruning Scheme         =           FLAT
    Nuclear Scheme         =       TREUTLER

    BS radius alpha        =              1
    Pruning alpha          =              1
    Radial Points          =             75
    Spherical Points       =            302
    Total Points           =         395086
    Total Blocks           =           2997
    Max Points             =            256
    Max Functions          =             51

   => Loading Basis Set <=

    Name: (STO-3G AUX)
    Role: JKFIT
    Keyword: DF_BASIS_SCF
    atoms 1-7   entry C          line   203 file /home/aaojha/anaconda3/envs/torsiondrive/share/psi4/basis/def2-svp-jkfit.gbs 
    atoms 8-9   entry N          line   263 file /home/aaojha/anaconda3/envs/torsiondrive/share/psi4/basis/def2-svp-jkfit.gbs 
    atoms 10-18 entry H          line    23 file /home/aaojha/anaconda3/envs/torsiondrive/share/psi4/basis/def2-svp-jkfit.gbs 

  ==> Pre-Iterations <==

   -------------------------------------------------------
    Irrep   Nso     Nmo     Nalpha   Nbeta   Ndocc  Nsocc
   -------------------------------------------------------
     A         54      54       0       0       0       0
   -------------------------------------------------------
    Total      54      54      32      32      32       0
   -------------------------------------------------------

  ==> Integral Setup <==

  DFHelper Memory: AOs need 0.024 GiB; user supplied 34.425 GiB. Using in-core AOs.

  ==> MemDFJK: Density-Fitted J/K Matrices <==

    J tasked:                   Yes
    K tasked:                    No
    wK tasked:                   No
    OpenMP threads:               1
    Memory [MiB]:             35250
    Algorithm:                 Core
    Schwarz Cutoff:           1E-12
    Mask sparsity (%):       1.9890
    Fitting Condition:        1E-10

   => Auxiliary Basis Set <=

  Basis Set: (STO-3G AUX)
    Blend: DEF2-SVP-JKFIT
    Number of shells: 279
    Number of basis function: 841
    Number of Cartesian functions: 989
    Spherical Harmonics?: true
    Max angular momentum: 4

  Cached 100.0% of DFT collocation blocks in 0.500 [GiB].

  Minimum eigenvalue in the overlap matrix is 1.8839009276E-01.
  Using Symmetric Orthogonalization.

  SCF Guess: Superposition of Atomic Densities via on-the-fly atomic UHF.

  ==> Iterations <==

                           Total Energy        Delta E     RMS |[F,P]|

   @DF-RKS iter SAD:  -373.14394901157175   -3.73144e+02   0.00000e+00 
   @DF-RKS iter   1:  -376.48709191975456   -3.34314e+00   5.06557e-03 DIIS
   @DF-RKS iter   2:  -376.34590393278370    1.41188e-01   9.84576e-03 DIIS
   @DF-RKS iter   3:  -376.53534384560021   -1.89440e-01   1.72658e-03 DIIS
   @DF-RKS iter   4:  -376.54059267074183   -5.24883e-03   6.87295e-04 DIIS
   @DF-RKS iter   5:  -376.54162486617327   -1.03220e-03   1.55876e-04 DIIS
   @DF-RKS iter   6:  -376.54167192067905   -4.70545e-05   4.57455e-05 DIIS
   @DF-RKS iter   7:  -376.54167541957941   -3.49890e-06   1.71689e-05 DIIS
   @DF-RKS iter   8:  -376.54167590501527   -4.85436e-07   7.87701e-06 DIIS
   @DF-RKS iter   9:  -376.54167603553105   -1.30516e-07   9.40481e-07 DIIS
   @DF-RKS iter  10:  -376.54167603640212   -8.71069e-10   6.02860e-07 DIIS
   @DF-RKS iter  11:  -376.54167603727012   -8.67999e-10   5.30557e-08 DIIS
   @DF-RKS iter  12:  -376.54167603727274   -2.61480e-12   4.36398e-08 DIIS
   @DF-RKS iter  13:  -376.54167603727660   -3.86535e-12   6.97701e-09 DIIS
  Energy and wave function converged.


  ==> Post-Iterations <==

    Orbital Energies [Eh]
    ---------------------

    Doubly Occupied:                                                      

       1A    -14.120471     2A    -14.120284     3A    -10.091596  
       4A     -9.954403     5A     -9.928104     6A     -9.928041  
       7A     -9.916233     8A     -9.913057     9A     -9.912863  
      10A     -1.041113    11A     -0.961459    12A     -0.882087  
      13A     -0.806049    14A     -0.782978    15A     -0.737824  
      16A     -0.677800    17A     -0.668264    18A     -0.634695  
      19A     -0.632588    20A     -0.593016    21A     -0.570798  
      22A     -0.538633    23A     -0.507246    24A     -0.493910  
      25A     -0.487810    26A     -0.483595    27A     -0.419656  
      28A     -0.417655    29A     -0.412121    30A     -0.361367  
      31A     -0.325405    32A     -0.320463  

    Virtual:                                                              

      33A     -0.189484    34A     -0.107127    35A     -0.087934  
      36A      0.010010    37A      0.028447    38A      0.044335  
      39A      0.062658    40A      0.104422    41A      0.124110  
      42A      0.154375    43A      0.184688    44A      0.191007  
      45A      0.215351    46A      0.228574    47A      0.259400  
      48A      0.273956    49A      0.345625    50A      0.351961  
      51A      0.358060    52A      0.371990    53A      0.491017  
      54A      0.532613  

    Final Occupation by Irrep:
              A 
    DOCC [    32 ]

  @DF-RKS Final Energy:  -376.54167603727660

   => Energetics <=

    Nuclear Repulsion Energy =            406.3223370075875209
    One-Electron Energy =               -1303.4383814650191198
    Two-Electron Energy =                 574.8669684250000955
    DFT Exchange-Correlation Energy =     -54.2926000048450845
    Empirical Dispersion Energy =           0.0000000000000000
    VV10 Nonlocal Energy =                  0.0000000000000000
    Total Energy =                       -376.5416760372766021

Computation Completed


Properties will be evaluated at   0.000000,   0.000000,   0.000000 [a0]

Properties computed using the SCF density matrix

  Nuclear Dipole Moment: [e a0]
     X:     1.7899      Y:     0.0424      Z:    -0.0394

  Electronic Dipole Moment: [e a0]
     X:     0.6921      Y:    -0.0528      Z:     0.0227

  Dipole Moment: [e a0]
     X:     2.4819      Y:    -0.0104      Z:    -0.0167     Total:     2.4820

  Dipole Moment: [D]
     X:     6.3084      Y:    -0.0266      Z:    -0.0425     Total:     6.3086


*** tstop() called on aaojha at Fri May 14 09:59:53 2021
Module time:
	user time   =       7.11 seconds =       0.12 minutes
	system time =       0.17 seconds =       0.00 minutes
	total time  =          7 seconds =       0.12 minutes
Total time:
	user time   =       7.11 seconds =       0.12 minutes
	system time =       0.17 seconds =       0.00 minutes
	total time  =          7 seconds =       0.12 minutes

*** tstart() called on aaojha
*** at Fri May 14 09:59:53 2021


         ------------------------------------------------------------
                                   SCF GRAD                          
                          Rob Parrish, Justin Turney,                
                       Andy Simmonett, and Alex Sokolov              
         ------------------------------------------------------------

  ==> Geometry <==

    Molecular point group: c1
    Full point group: C1

    Geometry (in Angstrom), charge = 1, multiplicity = 1:

       Center              X                  Y                   Z               Mass       
    ------------   -----------------  -----------------  -----------------  -----------------
         C            0.185752830600    -0.021675510192     0.010372202488    12.000000000000
         C           -0.546565169400    -0.661930110192    -1.049981697512    12.000000000000
         C           -1.963306369400    -0.645083010192    -1.042661597512    12.000000000000
         C           -2.666845369400     0.014988089808     0.008122602488    12.000000000000
         C           -1.948037269400     0.660550389808     1.057467302488    12.000000000000
         C           -0.531165569400     0.646245989808     1.064184902488    12.000000000000
         C            1.693005730600    -0.013885910192    -0.004601897512    12.000000000000
         N            2.417253230600     0.312581989808     1.128597502488    14.003074004430
         N            2.395027930600    -0.298022510192    -1.162327997512    14.003074004430
         H           -0.020083169400    -1.207789410192    -1.856726497512     1.007825032230
         H           -2.521955669400    -1.150784510192    -1.854196697512     1.007825032230
         H           -3.775443669400     0.027808989808     0.008197402488     1.007825032230
         H           -2.494695669400     1.182807189808     1.866685102488     1.007825032230
         H            0.007857930600     1.183301889808     1.868385202488     1.007825032230
         H            3.468790630600     0.344056189808     1.131526302488     1.007825032230
         H            1.929057830600     0.423375389808     2.051221902488     1.007825032230
         H            3.446459030600    -0.315446210192    -1.189459497512     1.007825032230
         H            1.884161230600    -0.442080210192    -2.067794497512     1.007825032230

  Nuclear repulsion =  406.322337007587521

  ==> Basis Set <==

  Basis Set: STO-3G
    Blend: STO-3G
    Number of shells: 36
    Number of basis function: 54
    Number of Cartesian functions: 54
    Spherical Harmonics?: true
    Max angular momentum: 1

  ==> DFJKGrad: Density-Fitted SCF Gradients <==

    Gradient:                    1
    J tasked:                  Yes
    K tasked:                   No
    wK tasked:                  No
    OpenMP threads:              1
    Integrals threads:           1
    Memory [MiB]:            35762
    Schwarz Cutoff:          0E+00
    Fitting Condition:       1E-10

   => Auxiliary Basis Set <=

  Basis Set: (STO-3G AUX)
    Blend: DEF2-SVP-JKFIT
    Number of shells: 279
    Number of basis function: 841
    Number of Cartesian functions: 989
    Spherical Harmonics?: true
    Max angular momentum: 4

  ==> DFT Potential <==

   => Composite Functional: BLYP <= 

    BLYP GGA Exchange-Correlation Functional

    P.J. Stephens et. al., J. Phys. Chem., 98, 11623-11627, 1994
    B. Miehlich et. al., Chem. Phys. Lett., 157(3), 200-206 1989


    Deriv               =              1
    GGA                 =           TRUE
    Meta                =          FALSE

    Exchange Hybrid     =          FALSE
    MP2 Hybrid          =          FALSE

   => Exchange Functionals <=

    1.0000     XC_GGA_X_B88

   => Correlation Functionals <=

    1.0000     XC_GGA_C_LYP

   => Molecular Quadrature <=

    Radial Scheme          =       TREUTLER
    Pruning Scheme         =           FLAT
    Nuclear Scheme         =       TREUTLER

    BS radius alpha        =              1
    Pruning alpha          =              1
    Radial Points          =             75
    Spherical Points       =            302
    Total Points           =         395086
    Total Blocks           =           2997
    Max Points             =            256
    Max Functions          =             51


  -Total Gradient:
     Atom            X                  Y                   Z
    ------   -----------------  -----------------  -----------------
       1       -0.000166315640    -0.001350151611     0.000924221571
       2        0.000026789541     0.001385208792    -0.000921102476
       3       -0.000008121140    -0.000005005259    -0.000007375573
       4        0.000036496556    -0.000006074086    -0.000000508499
       5        0.000027493705    -0.000022695379    -0.000035196322
       6        0.000071826440     0.000062588994     0.000112792589
       7       -0.000044621137    -0.001715490506     0.000453897597
       8        0.000191159519     0.001525702756    -0.000610137265
       9       -0.000134729060     0.000091277260    -0.000079624716
      10        0.000003721525    -0.000003516761    -0.000015269122
      11        0.000006414433    -0.000003178432    -0.000002370346
      12        0.000002056487    -0.000001849960    -0.000003349692
      13        0.000013511744     0.000005578369     0.000000562979
      14       -0.000022038798     0.000015436605     0.000013439213
      15        0.000002065463     0.000061750809     0.000095477867
      16        0.000005040315     0.000031695387    -0.000044363622
      17       -0.000000472743    -0.000013054227     0.000119906868
      18       -0.000017757902    -0.000056775507    -0.000000142112


*** tstop() called on aaojha at Fri May 14 09:59:55 2021
Module time:
	user time   =       2.03 seconds =       0.03 minutes
	system time =       0.00 seconds =       0.00 minutes
	total time  =          2 seconds =       0.03 minutes
Total time:
	user time   =       9.14 seconds =       0.15 minutes
	system time =       0.17 seconds =       0.00 minutes
	total time  =          9 seconds =       0.15 minutes

    Psi4 stopped on: Friday, 14 May 2021 09:59AM
    Psi4 wall time for execution: 0:00:09.34

*** Psi4 exiting successfully. Buy a developer a beer!
