
    -----------------------------------------------------------------------
          Psi4: An Open-Source Ab Initio Electronic Structure Package
                               Psi4 1.3.2 release

                         Git: Rev {HEAD} ecbda83 


    R. M. Parrish, L. A. Burns, D. G. A. Smith, A. C. Simmonett,
    A. E. DePrince III, E. G. Hohenstein, U. Bozkaya, A. Yu. Sokolov,
    R. Di Remigio, R. M. Richard, J. F. Gonthier, A. M. James,
    H. R. McAlexander, A. Kumar, M. Saitow, X. Wang, B. P. Pritchard,
    P. Verma, H. F. Schaefer III, K. Patkowski, R. A. King, E. F. Valeev,
    F. A. Evangelista, J. M. Turney, T. D. Crawford, and C. D. Sherrill,
    J. Chem. Theory Comput. 13(7) pp 3185--3197 (2017).
    (doi: 10.1021/acs.jctc.7b00174)


                         Additional Contributions by
    P. Kraus, H. Kruse, M. H. Lechner, M. C. Schieber, R. A. Shaw,
    A. Alenaizan, R. Galvelis, Z. L. Glick, S. Lehtola, and J. P. Misiewicz

    -----------------------------------------------------------------------


    Psi4 started on: Friday, 14 May 2021 09:04AM

    Process ID: 29016
    Host:       aaojha
    PSIDATADIR: /home/aaojha/anaconda3/envs/torsiondrive/share/psi4
    Memory:     500.0 MiB
    Threads:    1
    
  ==> Input File <==

--------------------------------------------------------------------------
memory 50 GB
molecule {
1 1
C           0.1676159    -0.0000556     0.0003022
C          -0.5633209    -1.2404106     0.0217454
C          -1.9799435    -1.2346867     0.0214529
C          -2.6917184     0.0009104    -0.0000751
C          -1.9790929     1.2360181    -0.0213154
C          -0.5624616     1.2408245    -0.0212277
C           1.6772224    -0.0005767     0.0007166
N           2.3977968    -1.1818185     0.0215180
N           2.3975758     1.1807750    -0.0183999
H          -0.0410065    -2.2163460     0.0386577
H          -2.5313232    -2.1949294     0.0380714
H          -3.8003997     0.0012921    -0.0002604
H          -2.5298404     2.1966223    -0.0379207
H          -0.0394792     2.2163993    -0.0377702
H           3.4492828    -1.1941138     0.0220712
H           1.9043794    -2.1071223     0.0384267
H           3.4490572     1.1919795    -0.0230197
H           1.9045185     2.1061819    -0.0399572
}
set {
basis STO-3G
}
gradient('BLYP')
--------------------------------------------------------------------------

  Memory set to  46.566 GiB by Python driver.
gradient() will perform analytic gradient computation.

*** tstart() called on aaojha
*** at Fri May 14 09:04:32 2021

   => Loading Basis Set <=

    Name: STO-3G
    Role: ORBITAL
    Keyword: BASIS
    atoms 1-7   entry C          line    61 file /home/aaojha/anaconda3/envs/torsiondrive/share/psi4/basis/sto-3g.gbs 
    atoms 8-9   entry N          line    71 file /home/aaojha/anaconda3/envs/torsiondrive/share/psi4/basis/sto-3g.gbs 
    atoms 10-18 entry H          line    19 file /home/aaojha/anaconda3/envs/torsiondrive/share/psi4/basis/sto-3g.gbs 


         ---------------------------------------------------------
                                   SCF
               by Justin Turney, Rob Parrish, Andy Simmonett
                          and Daniel G. A. Smith
                              RKS Reference
                        1 Threads,  47683 MiB Core
         ---------------------------------------------------------

  ==> Geometry <==

    Molecular point group: c1
    Full point group: C1

    Geometry (in Angstrom), charge = 1, multiplicity = 1:

       Center              X                  Y                   Z               Mass       
    ------------   -----------------  -----------------  -----------------  -----------------
         C            0.186210983937    -0.000135152197    -0.000202730652    12.000000000000
         C           -0.544725816063    -1.240490152197     0.021240469348    12.000000000000
         C           -1.961348416063    -1.234766252197     0.020947969348    12.000000000000
         C           -2.673123316063     0.000830847803    -0.000580030652    12.000000000000
         C           -1.960497816063     1.235938547803    -0.021820330652    12.000000000000
         C           -0.543866516063     1.240744947803    -0.021732630652    12.000000000000
         C            1.695817483937    -0.000656252197     0.000211669348    12.000000000000
         N            2.416391883937    -1.181898052197     0.021013069348    14.003074004430
         N            2.416170883937     1.180695447803    -0.018904830652    14.003074004430
         H           -0.022411416063    -2.216425552197     0.038152769348     1.007825032230
         H           -2.512728116063    -2.195008952197     0.037566469348     1.007825032230
         H           -3.781804616063     0.001212547803    -0.000765330652     1.007825032230
         H           -2.511245316063     2.196542747803    -0.038425630652     1.007825032230
         H           -0.020884116063     2.216319747803    -0.038275130652     1.007825032230
         H            3.467877883937    -1.194193352197     0.021566269348     1.007825032230
         H            1.922974483937    -2.107201852197     0.037921769348     1.007825032230
         H            3.467652283937     1.191899947803    -0.023524630652     1.007825032230
         H            1.923113583937     2.106102347803    -0.040462130652     1.007825032230

  Running in c1 symmetry.

  Rotational constants: A =      0.11697  B =      0.03810  C =      0.02874 [cm^-1]
  Rotational constants: A =   3506.54683  B =   1142.34028  C =    861.64070 [MHz]
  Nuclear repulsion =  406.132821067382906

  Charge       = 1
  Multiplicity = 1
  Electrons    = 64
  Nalpha       = 32
  Nbeta        = 32

  ==> Algorithm <==

  SCF Algorithm Type is DF.
  DIIS enabled.
  MOM disabled.
  Fractional occupation disabled.
  Guess Type is SAD.
  Energy threshold   = 1.00e-08
  Density threshold  = 1.00e-08
  Integral threshold = 0.00e+00

  ==> Primary Basis <==

  Basis Set: STO-3G
    Blend: STO-3G
    Number of shells: 36
    Number of basis function: 54
    Number of Cartesian functions: 54
    Spherical Harmonics?: true
    Max angular momentum: 1

  ==> DFT Potential <==

   => Composite Functional: BLYP <= 

    BLYP GGA Exchange-Correlation Functional

    P.J. Stephens et. al., J. Phys. Chem., 98, 11623-11627, 1994
    B. Miehlich et. al., Chem. Phys. Lett., 157(3), 200-206 1989


    Deriv               =              1
    GGA                 =           TRUE
    Meta                =          FALSE

    Exchange Hybrid     =          FALSE
    MP2 Hybrid          =          FALSE

   => Exchange Functionals <=

    1.0000     XC_GGA_X_B88

   => Correlation Functionals <=

    1.0000     XC_GGA_C_LYP

   => Molecular Quadrature <=

    Radial Scheme          =       TREUTLER
    Pruning Scheme         =           FLAT
    Nuclear Scheme         =       TREUTLER

    BS radius alpha        =              1
    Pruning alpha          =              1
    Radial Points          =             75
    Spherical Points       =            302
    Total Points           =         394936
    Total Blocks           =           2986
    Max Points             =            256
    Max Functions          =             51

   => Loading Basis Set <=

    Name: (STO-3G AUX)
    Role: JKFIT
    Keyword: DF_BASIS_SCF
    atoms 1-7   entry C          line   203 file /home/aaojha/anaconda3/envs/torsiondrive/share/psi4/basis/def2-svp-jkfit.gbs 
    atoms 8-9   entry N          line   263 file /home/aaojha/anaconda3/envs/torsiondrive/share/psi4/basis/def2-svp-jkfit.gbs 
    atoms 10-18 entry H          line    23 file /home/aaojha/anaconda3/envs/torsiondrive/share/psi4/basis/def2-svp-jkfit.gbs 

  ==> Pre-Iterations <==

   -------------------------------------------------------
    Irrep   Nso     Nmo     Nalpha   Nbeta   Ndocc  Nsocc
   -------------------------------------------------------
     A         54      54       0       0       0       0
   -------------------------------------------------------
    Total      54      54      32      32      32       0
   -------------------------------------------------------

  ==> Integral Setup <==

  DFHelper Memory: AOs need 0.024 GiB; user supplied 34.426 GiB. Using in-core AOs.

  ==> MemDFJK: Density-Fitted J/K Matrices <==

    J tasked:                   Yes
    K tasked:                    No
    wK tasked:                   No
    OpenMP threads:               1
    Memory [MiB]:             35252
    Algorithm:                 Core
    Schwarz Cutoff:           1E-12
    Mask sparsity (%):       1.9890
    Fitting Condition:        1E-10

   => Auxiliary Basis Set <=

  Basis Set: (STO-3G AUX)
    Blend: DEF2-SVP-JKFIT
    Number of shells: 279
    Number of basis function: 841
    Number of Cartesian functions: 989
    Spherical Harmonics?: true
    Max angular momentum: 4

  Cached 100.0% of DFT collocation blocks in 0.498 [GiB].

  Minimum eigenvalue in the overlap matrix is 1.8838973491E-01.
  Using Symmetric Orthogonalization.

  SCF Guess: Superposition of Atomic Densities via on-the-fly atomic UHF.

  ==> Iterations <==

                           Total Energy        Delta E     RMS |[F,P]|

   @DF-RKS iter SAD:  -373.14495376109073   -3.73145e+02   0.00000e+00 
   @DF-RKS iter   1:  -376.48650118882210   -3.34155e+00   5.06896e-03 DIIS
   @DF-RKS iter   2:  -376.34501481346172    1.41486e-01   9.85572e-03 DIIS
   @DF-RKS iter   3:  -376.53443535799818   -1.89421e-01   1.74132e-03 DIIS
   @DF-RKS iter   4:  -376.53978545792040   -5.35010e-03   6.83362e-04 DIIS
   @DF-RKS iter   5:  -376.54081080001879   -1.02534e-03   1.55420e-04 DIIS
   @DF-RKS iter   6:  -376.54085841358608   -4.76136e-05   4.33032e-05 DIIS
   @DF-RKS iter   7:  -376.54086185878157   -3.44520e-06   1.05179e-05 DIIS
   @DF-RKS iter   8:  -376.54086209866421   -2.39883e-07   2.75909e-06 DIIS
   @DF-RKS iter   9:  -376.54086211357173   -1.49075e-08   6.53878e-07 DIIS
   @DF-RKS iter  10:  -376.54086211461686   -1.04512e-09   1.93518e-07 DIIS
   @DF-RKS iter  11:  -376.54086211468541   -6.85532e-11   7.28103e-08 DIIS
   @DF-RKS iter  12:  -376.54086211469166   -6.25278e-12   5.01215e-08 DIIS
   @DF-RKS iter  13:  -376.54086211469655   -4.88853e-12   6.91601e-09 DIIS
  Energy and wave function converged.


  ==> Post-Iterations <==

    Orbital Energies [Eh]
    ---------------------

    Doubly Occupied:                                                      

       1A    -14.119437     2A    -14.119360     3A    -10.092088  
       4A     -9.956797     5A     -9.930409     6A     -9.930356  
       7A     -9.917630     8A     -9.914331     9A     -9.914149  
      10A     -1.040852    11A     -0.960474    12A     -0.883127  
      13A     -0.806744    14A     -0.784407    15A     -0.738939  
      16A     -0.678388    17A     -0.669195    18A     -0.636965  
      19A     -0.631594    20A     -0.592458    21A     -0.571301  
      22A     -0.540634    23A     -0.503035    24A     -0.500042  
      25A     -0.489225    26A     -0.486190    27A     -0.421142  
      28A     -0.417938    29A     -0.413623    30A     -0.360144  
      31A     -0.326300    32A     -0.321484  

    Virtual:                                                              

      33A     -0.190341    34A     -0.107889    35A     -0.085387  
      36A      0.005955    37A      0.033295    38A      0.037611  
      39A      0.062208    40A      0.096441    41A      0.124432  
      42A      0.152578    43A      0.182896    44A      0.192060  
      45A      0.219567    46A      0.227919    47A      0.261072  
      48A      0.273820    49A      0.346368    50A      0.351532  
      51A      0.363639    52A      0.370632    53A      0.490388  
      54A      0.532053  

    Final Occupation by Irrep:
              A 
    DOCC [    32 ]

  @DF-RKS Final Energy:  -376.54086211469655

   => Energetics <=

    Nuclear Repulsion Energy =            406.1328210673829062
    One-Electron Energy =               -1303.0042575314669193
    Two-Electron Energy =                 574.6219306982879971
    DFT Exchange-Correlation Energy =     -54.2913563489005426
    Empirical Dispersion Energy =           0.0000000000000000
    VV10 Nonlocal Energy =                  0.0000000000000000
    Total Energy =                       -376.5408621146965515

Computation Completed


Properties will be evaluated at   0.000000,   0.000000,   0.000000 [a0]

Properties computed using the SCF density matrix

  Nuclear Dipole Moment: [e a0]
     X:     1.7977      Y:    -0.0007      Z:    -0.0059

  Electronic Dipole Moment: [e a0]
     X:     0.6547      Y:    -0.0003      Z:     0.0007

  Dipole Moment: [e a0]
     X:     2.4523      Y:    -0.0010      Z:    -0.0052     Total:     2.4523

  Dipole Moment: [D]
     X:     6.2332      Y:    -0.0026      Z:    -0.0132     Total:     6.2332


*** tstop() called on aaojha at Fri May 14 09:04:39 2021
Module time:
	user time   =       7.28 seconds =       0.12 minutes
	system time =       0.19 seconds =       0.00 minutes
	total time  =          7 seconds =       0.12 minutes
Total time:
	user time   =       7.28 seconds =       0.12 minutes
	system time =       0.19 seconds =       0.00 minutes
	total time  =          7 seconds =       0.12 minutes

*** tstart() called on aaojha
*** at Fri May 14 09:04:39 2021


         ------------------------------------------------------------
                                   SCF GRAD                          
                          Rob Parrish, Justin Turney,                
                       Andy Simmonett, and Alex Sokolov              
         ------------------------------------------------------------

  ==> Geometry <==

    Molecular point group: c1
    Full point group: C1

    Geometry (in Angstrom), charge = 1, multiplicity = 1:

       Center              X                  Y                   Z               Mass       
    ------------   -----------------  -----------------  -----------------  -----------------
         C            0.186210983937    -0.000135152197    -0.000202730652    12.000000000000
         C           -0.544725816063    -1.240490152197     0.021240469348    12.000000000000
         C           -1.961348416063    -1.234766252197     0.020947969348    12.000000000000
         C           -2.673123316063     0.000830847803    -0.000580030652    12.000000000000
         C           -1.960497816063     1.235938547803    -0.021820330652    12.000000000000
         C           -0.543866516063     1.240744947803    -0.021732630652    12.000000000000
         C            1.695817483937    -0.000656252197     0.000211669348    12.000000000000
         N            2.416391883937    -1.181898052197     0.021013069348    14.003074004430
         N            2.416170883937     1.180695447803    -0.018904830652    14.003074004430
         H           -0.022411416063    -2.216425552197     0.038152769348     1.007825032230
         H           -2.512728116063    -2.195008952197     0.037566469348     1.007825032230
         H           -3.781804616063     0.001212547803    -0.000765330652     1.007825032230
         H           -2.511245316063     2.196542747803    -0.038425630652     1.007825032230
         H           -0.020884116063     2.216319747803    -0.038275130652     1.007825032230
         H            3.467877883937    -1.194193352197     0.021566269348     1.007825032230
         H            1.922974483937    -2.107201852197     0.037921769348     1.007825032230
         H            3.467652283937     1.191899947803    -0.023524630652     1.007825032230
         H            1.923113583937     2.106102347803    -0.040462130652     1.007825032230

  Nuclear repulsion =  406.132821067382906

  ==> Basis Set <==

  Basis Set: STO-3G
    Blend: STO-3G
    Number of shells: 36
    Number of basis function: 54
    Number of Cartesian functions: 54
    Spherical Harmonics?: true
    Max angular momentum: 1

  ==> DFJKGrad: Density-Fitted SCF Gradients <==

    Gradient:                    1
    J tasked:                  Yes
    K tasked:                   No
    wK tasked:                  No
    OpenMP threads:              1
    Integrals threads:           1
    Memory [MiB]:            35762
    Schwarz Cutoff:          0E+00
    Fitting Condition:       1E-10

   => Auxiliary Basis Set <=

  Basis Set: (STO-3G AUX)
    Blend: DEF2-SVP-JKFIT
    Number of shells: 279
    Number of basis function: 841
    Number of Cartesian functions: 989
    Spherical Harmonics?: true
    Max angular momentum: 4

  ==> DFT Potential <==

   => Composite Functional: BLYP <= 

    BLYP GGA Exchange-Correlation Functional

    P.J. Stephens et. al., J. Phys. Chem., 98, 11623-11627, 1994
    B. Miehlich et. al., Chem. Phys. Lett., 157(3), 200-206 1989


    Deriv               =              1
    GGA                 =           TRUE
    Meta                =          FALSE

    Exchange Hybrid     =          FALSE
    MP2 Hybrid          =          FALSE

   => Exchange Functionals <=

    1.0000     XC_GGA_X_B88

   => Correlation Functionals <=

    1.0000     XC_GGA_C_LYP

   => Molecular Quadrature <=

    Radial Scheme          =       TREUTLER
    Pruning Scheme         =           FLAT
    Nuclear Scheme         =       TREUTLER

    BS radius alpha        =              1
    Pruning alpha          =              1
    Radial Points          =             75
    Spherical Points       =            302
    Total Points           =         394936
    Total Blocks           =           2986
    Max Points             =            256
    Max Functions          =             51


  -Total Gradient:
     Atom            X                  Y                   Z
    ------   -----------------  -----------------  -----------------
       1       -0.000021296017     0.000059458772    -0.000022299917
       2       -0.000004560346     0.000098247324     0.000010908503
       3       -0.000110767705    -0.000182207951     0.000003510298
       4        0.000260034458     0.000007692202    -0.000002084878
       5       -0.000120670149     0.000171853213    -0.000000834752
       6        0.000002146631    -0.000071911283    -0.000005560524
       7       -0.000011881051    -0.000077527632    -0.000018625590
       8        0.000094012605     0.000101420408     0.000006816035
       9       -0.000100782134     0.000001324579     0.000116736121
      10       -0.000016486528    -0.000006351963    -0.000001657332
      11        0.000003664707    -0.000022417752     0.000003219518
      12        0.000021145014    -0.000000523773    -0.000001606881
      13        0.000002165560     0.000019867821     0.000001380086
      14       -0.000002554600    -0.000002247052     0.000001738032
      15        0.000014644417    -0.000038170369    -0.000008289387
      16       -0.000008239472     0.000000302053    -0.000004409149
      17        0.000006079773    -0.000078803449    -0.000039843309
      18       -0.000021933605     0.000019638322    -0.000039144816


*** tstop() called on aaojha at Fri May 14 09:04:42 2021
Module time:
	user time   =       2.10 seconds =       0.04 minutes
	system time =       0.02 seconds =       0.00 minutes
	total time  =          3 seconds =       0.05 minutes
Total time:
	user time   =       9.38 seconds =       0.16 minutes
	system time =       0.21 seconds =       0.00 minutes
	total time  =         10 seconds =       0.17 minutes

    Psi4 stopped on: Friday, 14 May 2021 09:04AM
    Psi4 wall time for execution: 0:00:09.64

*** Psi4 exiting successfully. Buy a developer a beer!
