
    -----------------------------------------------------------------------
          Psi4: An Open-Source Ab Initio Electronic Structure Package
                               Psi4 1.3.2 release

                         Git: Rev {HEAD} ecbda83 


    R. M. Parrish, L. A. Burns, D. G. A. Smith, A. C. Simmonett,
    A. E. DePrince III, E. G. Hohenstein, U. Bozkaya, A. Yu. Sokolov,
    R. Di Remigio, R. M. Richard, J. F. Gonthier, A. M. James,
    H. R. McAlexander, A. Kumar, M. Saitow, X. Wang, B. P. Pritchard,
    P. Verma, H. F. Schaefer III, K. Patkowski, R. A. King, E. F. Valeev,
    F. A. Evangelista, J. M. Turney, T. D. Crawford, and C. D. Sherrill,
    J. Chem. Theory Comput. 13(7) pp 3185--3197 (2017).
    (doi: 10.1021/acs.jctc.7b00174)


                         Additional Contributions by
    P. Kraus, H. Kruse, M. H. Lechner, M. C. Schieber, R. A. Shaw,
    A. Alenaizan, R. Galvelis, Z. L. Glick, S. Lehtola, and J. P. Misiewicz

    -----------------------------------------------------------------------


    Psi4 started on: Friday, 14 May 2021 10:09AM

    Process ID: 19869
    Host:       aaojha
    PSIDATADIR: /home/aaojha/anaconda3/envs/torsiondrive/share/psi4
    Memory:     500.0 MiB
    Threads:    1
    
  ==> Input File <==

--------------------------------------------------------------------------
memory 50 GB
molecule {
1 1
C           0.1527361     0.0023531    -0.0110388
C          -0.5726084    -0.7357952    -1.0082455
C          -1.9899888    -0.7360619    -0.9882895
C          -2.6920356     0.0015114     0.0108598
C          -1.9760366     0.7386153     1.0003922
C          -0.5585392     0.7375810     0.9984536
C           1.6594899    -0.0033552    -0.0176387
N           2.3679427     0.1292445     1.1621363
N           2.3579997    -0.1486866    -1.2018967
H          -0.0343438    -1.3370000    -1.7665891
H          -2.5498543    -1.3163999    -1.7474018
H          -3.8005833     0.0013413     0.0188347
H          -2.5245901     1.3177397     1.7686468
H          -0.0089915     1.3375054     1.7496997
H           3.4195744     0.1625834     1.1864636
H           1.8584882     0.1246334     2.0808347
H           3.4088237    -0.1945760    -1.2380930
H           1.8405855    -0.1359829    -2.1160574
}
set {
basis STO-3G
}
gradient('BLYP')
--------------------------------------------------------------------------

  Memory set to  46.566 GiB by Python driver.
gradient() will perform analytic gradient computation.

*** tstart() called on aaojha
*** at Fri May 14 10:09:06 2021

   => Loading Basis Set <=

    Name: STO-3G
    Role: ORBITAL
    Keyword: BASIS
    atoms 1-7   entry C          line    61 file /home/aaojha/anaconda3/envs/torsiondrive/share/psi4/basis/sto-3g.gbs 
    atoms 8-9   entry N          line    71 file /home/aaojha/anaconda3/envs/torsiondrive/share/psi4/basis/sto-3g.gbs 
    atoms 10-18 entry H          line    19 file /home/aaojha/anaconda3/envs/torsiondrive/share/psi4/basis/sto-3g.gbs 


         ---------------------------------------------------------
                                   SCF
               by Justin Turney, Rob Parrish, Andy Simmonett
                          and Daniel G. A. Smith
                              RKS Reference
                        1 Threads,  47683 MiB Core
         ---------------------------------------------------------

  ==> Geometry <==

    Molecular point group: c1
    Full point group: C1

    Geometry (in Angstrom), charge = 1, multiplicity = 1:

       Center              X                  Y                   Z               Mass       
    ------------   -----------------  -----------------  -----------------  -----------------
         C            0.185148397416     0.004455381036    -0.004373509124    12.000000000000
         C           -0.540196102584    -0.733692918964    -1.001580209124    12.000000000000
         C           -1.957576502584    -0.733959618964    -0.981624209124    12.000000000000
         C           -2.659623302584     0.003613681036     0.017525090876    12.000000000000
         C           -1.943624302584     0.740717581036     1.007057490876    12.000000000000
         C           -0.526126902584     0.739683281036     1.005118890876    12.000000000000
         C            1.691902197416    -0.001252918964    -0.010973409124    12.000000000000
         N            2.400354997416     0.131346781036     1.168801590876    14.003074004430
         N            2.390411997416    -0.146584318964    -1.195231409124    14.003074004430
         H           -0.001931502584    -1.334897718964    -1.759923809124     1.007825032230
         H           -2.517442002584    -1.314297618964    -1.740736509124     1.007825032230
         H           -3.768171002584     0.003443581036     0.025499990876     1.007825032230
         H           -2.492177802584     1.319841981036     1.775312090876     1.007825032230
         H            0.023420797416     1.339607681036     1.756364990876     1.007825032230
         H            3.451986697416     0.164685681036     1.193128890876     1.007825032230
         H            1.890900497416     0.126735681036     2.087499990876     1.007825032230
         H            3.441235997416    -0.192473718964    -1.231427709124     1.007825032230
         H            1.872997797416    -0.133880618964    -2.109392109124     1.007825032230

  Running in c1 symmetry.

  Rotational constants: A =      0.11615  B =      0.03783  C =      0.02944 [cm^-1]
  Rotational constants: A =   3482.11410  B =   1134.19519  C =    882.56308 [MHz]
  Nuclear repulsion =  406.422118363798575

  Charge       = 1
  Multiplicity = 1
  Electrons    = 64
  Nalpha       = 32
  Nbeta        = 32

  ==> Algorithm <==

  SCF Algorithm Type is DF.
  DIIS enabled.
  MOM disabled.
  Fractional occupation disabled.
  Guess Type is SAD.
  Energy threshold   = 1.00e-08
  Density threshold  = 1.00e-08
  Integral threshold = 0.00e+00

  ==> Primary Basis <==

  Basis Set: STO-3G
    Blend: STO-3G
    Number of shells: 36
    Number of basis function: 54
    Number of Cartesian functions: 54
    Spherical Harmonics?: true
    Max angular momentum: 1

  ==> DFT Potential <==

   => Composite Functional: BLYP <= 

    BLYP GGA Exchange-Correlation Functional

    P.J. Stephens et. al., J. Phys. Chem., 98, 11623-11627, 1994
    B. Miehlich et. al., Chem. Phys. Lett., 157(3), 200-206 1989


    Deriv               =              1
    GGA                 =           TRUE
    Meta                =          FALSE

    Exchange Hybrid     =          FALSE
    MP2 Hybrid          =          FALSE

   => Exchange Functionals <=

    1.0000     XC_GGA_X_B88

   => Correlation Functionals <=

    1.0000     XC_GGA_C_LYP

   => Molecular Quadrature <=

    Radial Scheme          =       TREUTLER
    Pruning Scheme         =           FLAT
    Nuclear Scheme         =       TREUTLER

    BS radius alpha        =              1
    Pruning alpha          =              1
    Radial Points          =             75
    Spherical Points       =            302
    Total Points           =         395280
    Total Blocks           =           2992
    Max Points             =            256
    Max Functions          =             51

   => Loading Basis Set <=

    Name: (STO-3G AUX)
    Role: JKFIT
    Keyword: DF_BASIS_SCF
    atoms 1-7   entry C          line   203 file /home/aaojha/anaconda3/envs/torsiondrive/share/psi4/basis/def2-svp-jkfit.gbs 
    atoms 8-9   entry N          line   263 file /home/aaojha/anaconda3/envs/torsiondrive/share/psi4/basis/def2-svp-jkfit.gbs 
    atoms 10-18 entry H          line    23 file /home/aaojha/anaconda3/envs/torsiondrive/share/psi4/basis/def2-svp-jkfit.gbs 

  ==> Pre-Iterations <==

   -------------------------------------------------------
    Irrep   Nso     Nmo     Nalpha   Nbeta   Ndocc  Nsocc
   -------------------------------------------------------
     A         54      54       0       0       0       0
   -------------------------------------------------------
    Total      54      54      32      32      32       0
   -------------------------------------------------------

  ==> Integral Setup <==

  DFHelper Memory: AOs need 0.024 GiB; user supplied 34.424 GiB. Using in-core AOs.

  ==> MemDFJK: Density-Fitted J/K Matrices <==

    J tasked:                   Yes
    K tasked:                    No
    wK tasked:                   No
    OpenMP threads:               1
    Memory [MiB]:             35249
    Algorithm:                 Core
    Schwarz Cutoff:           1E-12
    Mask sparsity (%):       1.9890
    Fitting Condition:        1E-10

   => Auxiliary Basis Set <=

  Basis Set: (STO-3G AUX)
    Blend: DEF2-SVP-JKFIT
    Number of shells: 279
    Number of basis function: 841
    Number of Cartesian functions: 989
    Spherical Harmonics?: true
    Max angular momentum: 4

  Cached 100.0% of DFT collocation blocks in 0.501 [GiB].

  Minimum eigenvalue in the overlap matrix is 1.8829290496E-01.
  Using Symmetric Orthogonalization.

  SCF Guess: Superposition of Atomic Densities via on-the-fly atomic UHF.

  ==> Iterations <==

                           Total Energy        Delta E     RMS |[F,P]|

   @DF-RKS iter SAD:  -373.14479524668923   -3.73145e+02   0.00000e+00 
   @DF-RKS iter   1:  -376.48737723402655   -3.34258e+00   5.06519e-03 DIIS
   @DF-RKS iter   2:  -376.34628563596391    1.41092e-01   9.85569e-03 DIIS
   @DF-RKS iter   3:  -376.53611345327374   -1.89828e-01   1.68675e-03 DIIS
   @DF-RKS iter   4:  -376.54108310672950   -4.96965e-03   6.86281e-04 DIIS
   @DF-RKS iter   5:  -376.54210380132974   -1.02069e-03   1.56565e-04 DIIS
   @DF-RKS iter   6:  -376.54215147692594   -4.76756e-05   4.33046e-05 DIIS
   @DF-RKS iter   7:  -376.54215483052110   -3.35360e-06   1.18917e-05 DIIS
   @DF-RKS iter   8:  -376.54215509224309   -2.61722e-07   3.95173e-06 DIIS
   @DF-RKS iter   9:  -376.54215512595601   -3.37129e-08   4.98473e-07 DIIS
   @DF-RKS iter  10:  -376.54215512647011   -5.14092e-10   2.42943e-07 DIIS
   @DF-RKS iter  11:  -376.54215512658516   -1.15051e-10   6.72430e-08 DIIS
   @DF-RKS iter  12:  -376.54215512658777   -2.61480e-12   5.67781e-08 DIIS
   @DF-RKS iter  13:  -376.54215512659391   -6.13909e-12   8.32275e-09 DIIS
  Energy and wave function converged.


  ==> Post-Iterations <==

    Orbital Energies [Eh]
    ---------------------

    Doubly Occupied:                                                      

       1A    -14.122526     2A    -14.122443     3A    -10.092020  
       4A     -9.951188     5A     -9.925051     6A     -9.924975  
       7A     -9.913647     8A     -9.910950     9A     -9.910733  
      10A     -1.042033    11A     -0.963208    12A     -0.880530  
      13A     -0.804896    14A     -0.780832    15A     -0.736832  
      16A     -0.677705    17A     -0.666784    18A     -0.635146  
      19A     -0.632014    20A     -0.593997    21A     -0.570188  
      22A     -0.535643    23A     -0.510548    24A     -0.488730  
      25A     -0.485914    26A     -0.480051    27A     -0.417267  
      28A     -0.417082    29A     -0.410208    30A     -0.363207  
      31A     -0.323854    32A     -0.318651  

    Virtual:                                                              

      33A     -0.187177    34A     -0.105585    35A     -0.092717  
      36A      0.012235    37A      0.025291    38A      0.049603  
      39A      0.060698    40A      0.111750    41A      0.123029  
      42A      0.158023    43A      0.187264    44A      0.188009  
      45A      0.218168    46A      0.229994    47A      0.258209  
      48A      0.276141    49A      0.347474    50A      0.350221  
      51A      0.356647    52A      0.372443    53A      0.492248  
      54A      0.534541  

    Final Occupation by Irrep:
              A 
    DOCC [    32 ]

  @DF-RKS Final Energy:  -376.54215512659391

   => Energetics <=

    Nuclear Repulsion Energy =            406.4221183637985746
    One-Electron Energy =               -1303.7035321889652550
    Two-Electron Energy =                 575.0330081759893801
    DFT Exchange-Correlation Energy =     -54.2937494774165046
    Empirical Dispersion Energy =           0.0000000000000000
    VV10 Nonlocal Energy =                  0.0000000000000000
    Total Energy =                       -376.5421551265938547

Computation Completed


Properties will be evaluated at   0.000000,   0.000000,   0.000000 [a0]

Properties computed using the SCF density matrix

  Nuclear Dipole Moment: [e a0]
     X:     1.7680      Y:    -0.0199      Z:    -0.0034

  Electronic Dipole Moment: [e a0]
     X:     0.7694      Y:     0.0115      Z:    -0.0101

  Dipole Moment: [e a0]
     X:     2.5374      Y:    -0.0084      Z:    -0.0135     Total:     2.5375

  Dipole Moment: [D]
     X:     6.4495      Y:    -0.0213      Z:    -0.0343     Total:     6.4496


*** tstop() called on aaojha at Fri May 14 10:09:13 2021
Module time:
	user time   =       7.02 seconds =       0.12 minutes
	system time =       0.19 seconds =       0.00 minutes
	total time  =          7 seconds =       0.12 minutes
Total time:
	user time   =       7.02 seconds =       0.12 minutes
	system time =       0.19 seconds =       0.00 minutes
	total time  =          7 seconds =       0.12 minutes

*** tstart() called on aaojha
*** at Fri May 14 10:09:13 2021


         ------------------------------------------------------------
                                   SCF GRAD                          
                          Rob Parrish, Justin Turney,                
                       Andy Simmonett, and Alex Sokolov              
         ------------------------------------------------------------

  ==> Geometry <==

    Molecular point group: c1
    Full point group: C1

    Geometry (in Angstrom), charge = 1, multiplicity = 1:

       Center              X                  Y                   Z               Mass       
    ------------   -----------------  -----------------  -----------------  -----------------
         C            0.185148397416     0.004455381036    -0.004373509124    12.000000000000
         C           -0.540196102584    -0.733692918964    -1.001580209124    12.000000000000
         C           -1.957576502584    -0.733959618964    -0.981624209124    12.000000000000
         C           -2.659623302584     0.003613681036     0.017525090876    12.000000000000
         C           -1.943624302584     0.740717581036     1.007057490876    12.000000000000
         C           -0.526126902584     0.739683281036     1.005118890876    12.000000000000
         C            1.691902197416    -0.001252918964    -0.010973409124    12.000000000000
         N            2.400354997416     0.131346781036     1.168801590876    14.003074004430
         N            2.390411997416    -0.146584318964    -1.195231409124    14.003074004430
         H           -0.001931502584    -1.334897718964    -1.759923809124     1.007825032230
         H           -2.517442002584    -1.314297618964    -1.740736509124     1.007825032230
         H           -3.768171002584     0.003443581036     0.025499990876     1.007825032230
         H           -2.492177802584     1.319841981036     1.775312090876     1.007825032230
         H            0.023420797416     1.339607681036     1.756364990876     1.007825032230
         H            3.451986697416     0.164685681036     1.193128890876     1.007825032230
         H            1.890900497416     0.126735681036     2.087499990876     1.007825032230
         H            3.441235997416    -0.192473718964    -1.231427709124     1.007825032230
         H            1.872997797416    -0.133880618964    -2.109392109124     1.007825032230

  Nuclear repulsion =  406.422118363798575

  ==> Basis Set <==

  Basis Set: STO-3G
    Blend: STO-3G
    Number of shells: 36
    Number of basis function: 54
    Number of Cartesian functions: 54
    Spherical Harmonics?: true
    Max angular momentum: 1

  ==> DFJKGrad: Density-Fitted SCF Gradients <==

    Gradient:                    1
    J tasked:                  Yes
    K tasked:                   No
    wK tasked:                  No
    OpenMP threads:              1
    Integrals threads:           1
    Memory [MiB]:            35762
    Schwarz Cutoff:          0E+00
    Fitting Condition:       1E-10

   => Auxiliary Basis Set <=

  Basis Set: (STO-3G AUX)
    Blend: DEF2-SVP-JKFIT
    Number of shells: 279
    Number of basis function: 841
    Number of Cartesian functions: 989
    Spherical Harmonics?: true
    Max angular momentum: 4

  ==> DFT Potential <==

   => Composite Functional: BLYP <= 

    BLYP GGA Exchange-Correlation Functional

    P.J. Stephens et. al., J. Phys. Chem., 98, 11623-11627, 1994
    B. Miehlich et. al., Chem. Phys. Lett., 157(3), 200-206 1989


    Deriv               =              1
    GGA                 =           TRUE
    Meta                =          FALSE

    Exchange Hybrid     =          FALSE
    MP2 Hybrid          =          FALSE

   => Exchange Functionals <=

    1.0000     XC_GGA_X_B88

   => Correlation Functionals <=

    1.0000     XC_GGA_C_LYP

   => Molecular Quadrature <=

    Radial Scheme          =       TREUTLER
    Pruning Scheme         =           FLAT
    Nuclear Scheme         =       TREUTLER

    BS radius alpha        =              1
    Pruning alpha          =              1
    Radial Points          =             75
    Spherical Points       =            302
    Total Points           =         395280
    Total Blocks           =           2992
    Max Points             =            256
    Max Functions          =             51


  -Total Gradient:
     Atom            X                  Y                   Z
    ------   -----------------  -----------------  -----------------
       1        0.000201797146     0.000282332272    -0.000224085315
       2        0.000015990667    -0.000216856463     0.000318173741
       3       -0.000111540829    -0.000123873348    -0.000150449600
       4        0.000411576451     0.000012376465    -0.000022657484
       5       -0.000283438956     0.000284466329     0.000423538295
       6       -0.000161289358    -0.000240432813    -0.000348505452
       7        0.000234927155     0.000375418240    -0.000189748252
       8       -0.000375376143    -0.000185655444     0.000458287889
       9        0.000110152520    -0.000108440178     0.000072470045
      10       -0.000015116667     0.000002104584     0.000011842207
      11        0.000010575251    -0.000020917586    -0.000019195337
      12        0.000034464530     0.000016578827     0.000017951697
      13       -0.000023234221     0.000015950335     0.000034409601
      14       -0.000040157613    -0.000023923819    -0.000010148063
      15       -0.000014022297    -0.000093335841    -0.000306517554
      16        0.000015874850    -0.000053306109     0.000064320015
      17       -0.000016073372     0.000028289187    -0.000125381286
      18        0.000020933852     0.000050110383    -0.000003950669


*** tstop() called on aaojha at Fri May 14 10:09:15 2021
Module time:
	user time   =       2.02 seconds =       0.03 minutes
	system time =       0.00 seconds =       0.00 minutes
	total time  =          2 seconds =       0.03 minutes
Total time:
	user time   =       9.04 seconds =       0.15 minutes
	system time =       0.19 seconds =       0.00 minutes
	total time  =          9 seconds =       0.15 minutes

    Psi4 stopped on: Friday, 14 May 2021 10:09AM
    Psi4 wall time for execution: 0:00:09.30

*** Psi4 exiting successfully. Buy a developer a beer!
