
    -----------------------------------------------------------------------
          Psi4: An Open-Source Ab Initio Electronic Structure Package
                               Psi4 1.3.2 release

                         Git: Rev {HEAD} ecbda83 


    R. M. Parrish, L. A. Burns, D. G. A. Smith, A. C. Simmonett,
    A. E. DePrince III, E. G. Hohenstein, U. Bozkaya, A. Yu. Sokolov,
    R. Di Remigio, R. M. Richard, J. F. Gonthier, A. M. James,
    H. R. McAlexander, A. Kumar, M. Saitow, X. Wang, B. P. Pritchard,
    P. Verma, H. F. Schaefer III, K. Patkowski, R. A. King, E. F. Valeev,
    F. A. Evangelista, J. M. Turney, T. D. Crawford, and C. D. Sherrill,
    J. Chem. Theory Comput. 13(7) pp 3185--3197 (2017).
    (doi: 10.1021/acs.jctc.7b00174)


                         Additional Contributions by
    P. Kraus, H. Kruse, M. H. Lechner, M. C. Schieber, R. A. Shaw,
    A. Alenaizan, R. Galvelis, Z. L. Glick, S. Lehtola, and J. P. Misiewicz

    -----------------------------------------------------------------------


    Psi4 started on: Friday, 14 May 2021 10:21AM

    Process ID: 30070
    Host:       aaojha
    PSIDATADIR: /home/aaojha/anaconda3/envs/torsiondrive/share/psi4
    Memory:     500.0 MiB
    Threads:    1
    
  ==> Input File <==

--------------------------------------------------------------------------
memory 50 GB
molecule {
1 1
C           0.1542836    -0.0083404    -0.0051384
C          -0.5715930    -0.3153809    -1.2069714
C          -1.9889911    -0.3011316    -1.1940065
C          -2.6917329     0.0061699     0.0087837
C          -1.9738277     0.3072997     1.2041983
C          -0.5563190     0.3083669     1.2033015
C           1.6611861    -0.0098956    -0.0145158
N           2.3723966     0.8200910     0.8319517
N           2.3580547    -0.8368015    -0.8758631
H          -0.0334891    -0.5227080    -2.1523530
H          -2.5487267    -0.5233124    -2.1234122
H          -3.8003019     0.0114383     0.0144374
H          -2.5221576     0.5357676     2.1388580
H          -0.0069087     0.5117743     2.1430310
H           3.4239929     0.8171298     0.8745505
H           1.8636149     1.5347639     1.4097982
H           3.4088184    -0.8364827    -0.9357375
H           1.8392367    -1.5525501    -1.4433876
}
set {
basis STO-3G
}
gradient('BLYP')
--------------------------------------------------------------------------

  Memory set to  46.566 GiB by Python driver.
gradient() will perform analytic gradient computation.

*** tstart() called on aaojha
*** at Fri May 14 10:21:34 2021

   => Loading Basis Set <=

    Name: STO-3G
    Role: ORBITAL
    Keyword: BASIS
    atoms 1-7   entry C          line    61 file /home/aaojha/anaconda3/envs/torsiondrive/share/psi4/basis/sto-3g.gbs 
    atoms 8-9   entry N          line    71 file /home/aaojha/anaconda3/envs/torsiondrive/share/psi4/basis/sto-3g.gbs 
    atoms 10-18 entry H          line    19 file /home/aaojha/anaconda3/envs/torsiondrive/share/psi4/basis/sto-3g.gbs 


         ---------------------------------------------------------
                                   SCF
               by Justin Turney, Rob Parrish, Andy Simmonett
                          and Daniel G. A. Smith
                              RKS Reference
                        1 Threads,  47683 MiB Core
         ---------------------------------------------------------

  ==> Geometry <==

    Molecular point group: c1
    Full point group: C1

    Geometry (in Angstrom), charge = 1, multiplicity = 1:

       Center              X                  Y                   Z               Mass       
    ------------   -----------------  -----------------  -----------------  -----------------
         C            0.185059834415    -0.004926767943     0.000988910180    12.000000000000
         C           -0.540816765585    -0.311967267943    -1.200844089820    12.000000000000
         C           -1.958214865585    -0.297717967943    -1.187879189820    12.000000000000
         C           -2.660956665585     0.009583532057     0.014911010180    12.000000000000
         C           -1.943051465585     0.310713332057     1.210325610180    12.000000000000
         C           -0.525542765585     0.311780532057     1.209428810180    12.000000000000
         C            1.691962334415    -0.006481967943    -0.008388489820    12.000000000000
         N            2.403172834415     0.823504632057     0.838079010180    14.003074004430
         N            2.388830934415    -0.833387867943    -0.869735789820    14.003074004430
         H           -0.002712865585    -0.519294367943    -2.146225689820     1.007825032230
         H           -2.517950465585    -0.519898767943    -2.117284889820     1.007825032230
         H           -3.769525665585     0.014851932057     0.020564710180     1.007825032230
         H           -2.491381365585     0.539181232057     2.144985310180     1.007825032230
         H            0.023867534415     0.515187932057     2.149158310180     1.007825032230
         H            3.454769134415     0.820543432057     0.880677810180     1.007825032230
         H            1.894391134415     1.538177532057     1.415925510180     1.007825032230
         H            3.439594634415    -0.833069067943    -0.929610189820     1.007825032230
         H            1.870012934415    -1.549136467943    -1.437260289820     1.007825032230

  Running in c1 symmetry.

  Rotational constants: A =      0.11621  B =      0.03782  C =      0.02943 [cm^-1]
  Rotational constants: A =   3483.94271  B =   1133.66551  C =    882.40535 [MHz]
  Nuclear repulsion =  406.408607912519130

  Charge       = 1
  Multiplicity = 1
  Electrons    = 64
  Nalpha       = 32
  Nbeta        = 32

  ==> Algorithm <==

  SCF Algorithm Type is DF.
  DIIS enabled.
  MOM disabled.
  Fractional occupation disabled.
  Guess Type is SAD.
  Energy threshold   = 1.00e-08
  Density threshold  = 1.00e-08
  Integral threshold = 0.00e+00

  ==> Primary Basis <==

  Basis Set: STO-3G
    Blend: STO-3G
    Number of shells: 36
    Number of basis function: 54
    Number of Cartesian functions: 54
    Spherical Harmonics?: true
    Max angular momentum: 1

  ==> DFT Potential <==

   => Composite Functional: BLYP <= 

    BLYP GGA Exchange-Correlation Functional

    P.J. Stephens et. al., J. Phys. Chem., 98, 11623-11627, 1994
    B. Miehlich et. al., Chem. Phys. Lett., 157(3), 200-206 1989


    Deriv               =              1
    GGA                 =           TRUE
    Meta                =          FALSE

    Exchange Hybrid     =          FALSE
    MP2 Hybrid          =          FALSE

   => Exchange Functionals <=

    1.0000     XC_GGA_X_B88

   => Correlation Functionals <=

    1.0000     XC_GGA_C_LYP

   => Molecular Quadrature <=

    Radial Scheme          =       TREUTLER
    Pruning Scheme         =           FLAT
    Nuclear Scheme         =       TREUTLER

    BS radius alpha        =              1
    Pruning alpha          =              1
    Radial Points          =             75
    Spherical Points       =            302
    Total Points           =         395277
    Total Blocks           =           2991
    Max Points             =            256
    Max Functions          =             51

   => Loading Basis Set <=

    Name: (STO-3G AUX)
    Role: JKFIT
    Keyword: DF_BASIS_SCF
    atoms 1-7   entry C          line   203 file /home/aaojha/anaconda3/envs/torsiondrive/share/psi4/basis/def2-svp-jkfit.gbs 
    atoms 8-9   entry N          line   263 file /home/aaojha/anaconda3/envs/torsiondrive/share/psi4/basis/def2-svp-jkfit.gbs 
    atoms 10-18 entry H          line    23 file /home/aaojha/anaconda3/envs/torsiondrive/share/psi4/basis/def2-svp-jkfit.gbs 

  ==> Pre-Iterations <==

   -------------------------------------------------------
    Irrep   Nso     Nmo     Nalpha   Nbeta   Ndocc  Nsocc
   -------------------------------------------------------
     A         54      54       0       0       0       0
   -------------------------------------------------------
    Total      54      54      32      32      32       0
   -------------------------------------------------------

  ==> Integral Setup <==

  DFHelper Memory: AOs need 0.024 GiB; user supplied 34.424 GiB. Using in-core AOs.

  ==> MemDFJK: Density-Fitted J/K Matrices <==

    J tasked:                   Yes
    K tasked:                    No
    wK tasked:                   No
    OpenMP threads:               1
    Memory [MiB]:             35250
    Algorithm:                 Core
    Schwarz Cutoff:           1E-12
    Mask sparsity (%):       1.8519
    Fitting Condition:        1E-10

   => Auxiliary Basis Set <=

  Basis Set: (STO-3G AUX)
    Blend: DEF2-SVP-JKFIT
    Number of shells: 279
    Number of basis function: 841
    Number of Cartesian functions: 989
    Spherical Harmonics?: true
    Max angular momentum: 4

  Cached 100.0% of DFT collocation blocks in 0.500 [GiB].

  Minimum eigenvalue in the overlap matrix is 1.8829461965E-01.
  Using Symmetric Orthogonalization.

  SCF Guess: Superposition of Atomic Densities via on-the-fly atomic UHF.

  ==> Iterations <==

                           Total Energy        Delta E     RMS |[F,P]|

   @DF-RKS iter SAD:  -373.14479877460212   -3.73145e+02   0.00000e+00 
   @DF-RKS iter   1:  -376.48736711796960   -3.34257e+00   5.06614e-03 DIIS
   @DF-RKS iter   2:  -376.34617699868534    1.41190e-01   9.85959e-03 DIIS
   @DF-RKS iter   3:  -376.53611611476356   -1.89939e-01   1.68689e-03 DIIS
   @DF-RKS iter   4:  -376.54108542477650   -4.96931e-03   6.86304e-04 DIIS
   @DF-RKS iter   5:  -376.54210595113545   -1.02053e-03   1.56738e-04 DIIS
   @DF-RKS iter   6:  -376.54215371669352   -4.77656e-05   4.34170e-05 DIIS
   @DF-RKS iter   7:  -376.54215707852006   -3.36183e-06   1.21374e-05 DIIS
   @DF-RKS iter   8:  -376.54215734263619   -2.64116e-07   4.49677e-06 DIIS
   @DF-RKS iter   9:  -376.54215738471771   -4.20815e-08   9.46488e-07 DIIS
   @DF-RKS iter  10:  -376.54215738555786   -8.40146e-10   6.81318e-07 DIIS
   @DF-RKS iter  11:  -376.54215738656046   -1.00260e-09   7.09626e-08 DIIS
   @DF-RKS iter  12:  -376.54215738656740   -6.93490e-12   4.21039e-08 DIIS
   @DF-RKS iter  13:  -376.54215738657058   -3.18323e-12   6.78784e-09 DIIS
  Energy and wave function converged.


  ==> Post-Iterations <==

    Orbital Energies [Eh]
    ---------------------

    Doubly Occupied:                                                      

       1A    -14.122508     2A    -14.122385     3A    -10.092026  
       4A     -9.951232     5A     -9.925064     6A     -9.925004  
       7A     -9.913692     8A     -9.910923     9A     -9.910713  
      10A     -1.042037    11A     -0.963159    12A     -0.880534  
      13A     -0.804913    14A     -0.780799    15A     -0.736879  
      16A     -0.677692    17A     -0.666776    18A     -0.635200  
      19A     -0.632020    20A     -0.593783    21A     -0.570238  
      22A     -0.535698    23A     -0.510571    24A     -0.488662  
      25A     -0.485935    26A     -0.480072    27A     -0.417333  
      28A     -0.417219    29A     -0.410059    30A     -0.363161  
      31A     -0.323893    32A     -0.318629  

    Virtual:                                                              

      33A     -0.187168    34A     -0.105563    35A     -0.092757  
      36A      0.012379    37A      0.025213    38A      0.049497  
      39A      0.060698    40A      0.111716    41A      0.123177  
      42A      0.157985    43A      0.187267    44A      0.187934  
      45A      0.218069    46A      0.230142    47A      0.258255  
      48A      0.276211    49A      0.347055    50A      0.350195  
      51A      0.356813    52A      0.372645    53A      0.492226  
      54A      0.534519  

    Final Occupation by Irrep:
              A 
    DOCC [    32 ]

  @DF-RKS Final Energy:  -376.54215738657058

   => Energetics <=

    Nuclear Repulsion Energy =            406.4086079125191304
    One-Electron Energy =               -1303.6766112334216814
    Two-Electron Energy =                 575.0195790635747244
    DFT Exchange-Correlation Energy =     -54.2937331292426464
    Empirical Dispersion Energy =           0.0000000000000000
    VV10 Nonlocal Energy =                  0.0000000000000000
    Total Energy =                       -376.5421573865705227

Computation Completed


Properties will be evaluated at   0.000000,   0.000000,   0.000000 [a0]

Properties computed using the SCF density matrix

  Nuclear Dipole Moment: [e a0]
     X:     1.7683      Y:     0.0062      Z:    -0.0178

  Electronic Dipole Moment: [e a0]
     X:     0.7694      Y:    -0.0119      Z:     0.0026

  Dipole Moment: [e a0]
     X:     2.5376      Y:    -0.0057      Z:    -0.0152     Total:     2.5377

  Dipole Moment: [D]
     X:     6.4501      Y:    -0.0146      Z:    -0.0387     Total:     6.4502


*** tstop() called on aaojha at Fri May 14 10:21:41 2021
Module time:
	user time   =       7.07 seconds =       0.12 minutes
	system time =       0.15 seconds =       0.00 minutes
	total time  =          7 seconds =       0.12 minutes
Total time:
	user time   =       7.07 seconds =       0.12 minutes
	system time =       0.15 seconds =       0.00 minutes
	total time  =          7 seconds =       0.12 minutes

*** tstart() called on aaojha
*** at Fri May 14 10:21:41 2021


         ------------------------------------------------------------
                                   SCF GRAD                          
                          Rob Parrish, Justin Turney,                
                       Andy Simmonett, and Alex Sokolov              
         ------------------------------------------------------------

  ==> Geometry <==

    Molecular point group: c1
    Full point group: C1

    Geometry (in Angstrom), charge = 1, multiplicity = 1:

       Center              X                  Y                   Z               Mass       
    ------------   -----------------  -----------------  -----------------  -----------------
         C            0.185059834415    -0.004926767943     0.000988910180    12.000000000000
         C           -0.540816765585    -0.311967267943    -1.200844089820    12.000000000000
         C           -1.958214865585    -0.297717967943    -1.187879189820    12.000000000000
         C           -2.660956665585     0.009583532057     0.014911010180    12.000000000000
         C           -1.943051465585     0.310713332057     1.210325610180    12.000000000000
         C           -0.525542765585     0.311780532057     1.209428810180    12.000000000000
         C            1.691962334415    -0.006481967943    -0.008388489820    12.000000000000
         N            2.403172834415     0.823504632057     0.838079010180    14.003074004430
         N            2.388830934415    -0.833387867943    -0.869735789820    14.003074004430
         H           -0.002712865585    -0.519294367943    -2.146225689820     1.007825032230
         H           -2.517950465585    -0.519898767943    -2.117284889820     1.007825032230
         H           -3.769525665585     0.014851932057     0.020564710180     1.007825032230
         H           -2.491381365585     0.539181232057     2.144985310180     1.007825032230
         H            0.023867534415     0.515187932057     2.149158310180     1.007825032230
         H            3.454769134415     0.820543432057     0.880677810180     1.007825032230
         H            1.894391134415     1.538177532057     1.415925510180     1.007825032230
         H            3.439594634415    -0.833069067943    -0.929610189820     1.007825032230
         H            1.870012934415    -1.549136467943    -1.437260289820     1.007825032230

  Nuclear repulsion =  406.408607912519130

  ==> Basis Set <==

  Basis Set: STO-3G
    Blend: STO-3G
    Number of shells: 36
    Number of basis function: 54
    Number of Cartesian functions: 54
    Spherical Harmonics?: true
    Max angular momentum: 1

  ==> DFJKGrad: Density-Fitted SCF Gradients <==

    Gradient:                    1
    J tasked:                  Yes
    K tasked:                   No
    wK tasked:                  No
    OpenMP threads:              1
    Integrals threads:           1
    Memory [MiB]:            35762
    Schwarz Cutoff:          0E+00
    Fitting Condition:       1E-10

   => Auxiliary Basis Set <=

  Basis Set: (STO-3G AUX)
    Blend: DEF2-SVP-JKFIT
    Number of shells: 279
    Number of basis function: 841
    Number of Cartesian functions: 989
    Spherical Harmonics?: true
    Max angular momentum: 4

  ==> DFT Potential <==

   => Composite Functional: BLYP <= 

    BLYP GGA Exchange-Correlation Functional

    P.J. Stephens et. al., J. Phys. Chem., 98, 11623-11627, 1994
    B. Miehlich et. al., Chem. Phys. Lett., 157(3), 200-206 1989


    Deriv               =              1
    GGA                 =           TRUE
    Meta                =          FALSE

    Exchange Hybrid     =          FALSE
    MP2 Hybrid          =          FALSE

   => Exchange Functionals <=

    1.0000     XC_GGA_X_B88

   => Correlation Functionals <=

    1.0000     XC_GGA_C_LYP

   => Molecular Quadrature <=

    Radial Scheme          =       TREUTLER
    Pruning Scheme         =           FLAT
    Nuclear Scheme         =       TREUTLER

    BS radius alpha        =              1
    Pruning alpha          =              1
    Radial Points          =             75
    Spherical Points       =            302
    Total Points           =         395277
    Total Blocks           =           2991
    Max Points             =            256
    Max Functions          =             51


  -Total Gradient:
     Atom            X                  Y                   Z
    ------   -----------------  -----------------  -----------------
       1        0.000001628546    -0.000427413259    -0.000102163096
       2       -0.000039453862     0.000342242381    -0.000050066299
       3        0.000072828415     0.000024394757     0.000080705247
       4       -0.000250607680    -0.000002378236     0.000008491848
       5        0.000127351848    -0.000035869941    -0.000203590790
       6        0.000022204094    -0.000012681668     0.000102065533
       7       -0.000099262963    -0.000188032818     0.000416621324
       8        0.000097018407     0.000158590553    -0.000190193234
       9        0.000072539559     0.000236289825     0.000077703057
      10        0.000017868477    -0.000004250796     0.000013191714
      11       -0.000013184548     0.000004975193     0.000018813407
      12       -0.000018541099    -0.000004775586    -0.000006597993
      13       -0.000000714208    -0.000005048479    -0.000022625096
      14        0.000009680895     0.000002058010    -0.000004169626
      15        0.000019656855    -0.000004638494    -0.000069165372
      16       -0.000002143393     0.000038436363    -0.000059381906
      17        0.000009283628    -0.000105547790    -0.000051513348
      18       -0.000010096846    -0.000016589558     0.000042285514


*** tstop() called on aaojha at Fri May 14 10:21:43 2021
Module time:
	user time   =       2.01 seconds =       0.03 minutes
	system time =       0.00 seconds =       0.00 minutes
	total time  =          2 seconds =       0.03 minutes
Total time:
	user time   =       9.08 seconds =       0.15 minutes
	system time =       0.15 seconds =       0.00 minutes
	total time  =          9 seconds =       0.15 minutes

    Psi4 stopped on: Friday, 14 May 2021 10:21AM
    Psi4 wall time for execution: 0:00:09.28

*** Psi4 exiting successfully. Buy a developer a beer!
