
Host: aaojha

Timers On : Fri May 14 09:44:21 2021
Timers Off: Fri May 14 09:44:31 2021

Wall Time:        9.69 seconds

                                                       Time (seconds)
Module                                       User      System        Wall        Calls
V: Grid                             :      1.183u      0.033s      0.729w      1 calls
DFH: sparsity prep                  :      0.033u      0.000s      0.012w      1 calls
DFH: initialize()                   :      0.633u      0.017s      0.387w      1 calls
DFH: AO Construction                :      0.250u      0.000s      0.156w      1 calls
DFH: AO-Met. Contraction            :      0.083u      0.017s      0.046w      1 calls
HF: Form core H                     :      0.000u      0.000s      0.002w      1 calls
HF: Form S/X                        :      0.000u      0.000s      0.000w      1 calls
HF: Guess                           :      0.267u      0.000s      0.153w      1 calls
SAD Guess                           :      0.250u      0.000s      0.146w      1 calls
HF: Form G                          :      8.633u      0.150s      5.273w     15 calls
RV: Form V                          :      8.633u      0.150s      5.251w     15 calls
Properties                          :      2.683u      0.033s      1.567w  47504 calls
Functional                          :      4.517u      0.100s      2.755w  47504 calls
V_xc                                :      2.167u      0.017s      1.391w  44535 calls
JK: D                               :      0.000u      0.000s      0.000w     15 calls
JK: USO2AO                          :      0.000u      0.000s      0.000w     15 calls
JK: JK                              :      0.000u      0.000s      0.021w     15 calls
DFH: compute_JK()                   :      0.000u      0.000s      0.021w     15 calls
DFH: Grabbing AOs                   :      0.000u      0.000s      0.000w     15 calls
DFH: compute_J                      :      0.000u      0.000s      0.021w     15 calls
JK: AO2USO                          :      0.000u      0.000s      0.000w     15 calls
HF: Form F                          :      0.000u      0.000s      0.000w     15 calls
HF: Form D                          :      0.000u      0.000s      0.000w     15 calls
HF: DIIS                            :      0.000u      0.000s      0.006w     14 calls
DIISManager::add_entry              :      0.000u      0.000s      0.001w     14 calls
DIISManager::extrapolate            :      0.000u      0.000s      0.002w     14 calls
bMatrix setup                       :      0.000u      0.000s      0.001w     14 calls
bMatrix pseudoinverse               :      0.000u      0.000s      0.000w     14 calls
New vector                          :      0.000u      0.000s      0.000w     14 calls
HF: Form C                          :      0.017u      0.000s      0.003w     14 calls
Grad: V T Perturb                   :      0.083u      0.000s      0.052w      1 calls
Grad: S                             :      0.000u      0.000s      0.001w      1 calls
Grad: JK                            :      1.850u      0.000s      1.122w      1 calls
JKGrad: Amn                         :      0.283u      0.000s      0.170w      1 calls
JKGrad: Awmn                        :      0.000u      0.000s      0.000w      1 calls
JKGrad: AB                          :      0.283u      0.000s      0.165w      1 calls
JKGrad: UV                          :      0.000u      0.000s      0.000w      1 calls
JKGrad: ABx                         :      0.117u      0.000s      0.076w      1 calls
JKGrad: Amnx                        :      1.150u      0.000s      0.688w      1 calls
Grad: XC                            :      1.383u      0.000s      0.830w      1 calls
V_xc gradient                       :      0.550u      0.000s      0.300w   2969 calls

--------------------------------------------------------------------------------------
V: Grid                             :      1.183u      0.033s      0.729w      1 calls
DFH: sparsity prep                  :      0.033u      0.000s      0.012w      1 calls
DFH: initialize()                   :      0.633u      0.017s      0.387w      1 calls
| DFH: AO Construction              :      0.250u      0.000s      0.156w      1 calls
| DFH: AO-Met. Contraction          :      0.083u      0.017s      0.046w      1 calls
HF: Form core H                     :      0.000u      0.000s      0.002w      1 calls
HF: Form S/X                        :      0.000u      0.000s      0.000w      1 calls
HF: Guess                           :      0.267u      0.000s      0.153w      1 calls
| SAD Guess                         :      0.250u      0.000s      0.146w      1 calls
HF: Form G                          :      8.633u      0.150s      5.273w     15 calls
| RV: Form V                        :      8.633u      0.150s      5.251w     15 calls
| | Properties                      :      2.117u      0.033s      1.217w  44535 calls
| | Functional                      :      4.250u      0.100s      2.580w  44535 calls
| | V_xc                            :      2.167u      0.017s      1.391w  44535 calls
| JK: D                             :      0.000u      0.000s      0.000w     15 calls
| JK: USO2AO                        :      0.000u      0.000s      0.000w     15 calls
| JK: JK                            :      0.000u      0.000s      0.021w     15 calls
| | DFH: compute_JK()               :      0.000u      0.000s      0.021w     15 calls
| | | DFH: Grabbing AOs             :      0.000u      0.000s      0.000w     15 calls
| | | DFH: compute_J                :      0.000u      0.000s      0.021w     15 calls
| JK: AO2USO                        :      0.000u      0.000s      0.000w     15 calls
HF: Form F                          :      0.000u      0.000s      0.000w     15 calls
HF: Form D                          :      0.000u      0.000s      0.000w     15 calls
HF: DIIS                            :      0.000u      0.000s      0.006w     14 calls
| DIISManager::add_entry            :      0.000u      0.000s      0.001w     14 calls
| DIISManager::extrapolate          :      0.000u      0.000s      0.002w     14 calls
| | bMatrix setup                   :      0.000u      0.000s      0.001w     14 calls
| | bMatrix pseudoinverse           :      0.000u      0.000s      0.000w     14 calls
| | New vector                      :      0.000u      0.000s      0.000w     14 calls
HF: Form C                          :      0.017u      0.000s      0.003w     14 calls
Grad: V T Perturb                   :      0.083u      0.000s      0.052w      1 calls
Grad: S                             :      0.000u      0.000s      0.001w      1 calls
Grad: JK                            :      1.850u      0.000s      1.122w      1 calls
| JKGrad: Amn                       :      0.283u      0.000s      0.170w      1 calls
| JKGrad: Awmn                      :      0.000u      0.000s      0.000w      1 calls
| JKGrad: AB                        :      0.283u      0.000s      0.165w      1 calls
| JKGrad: UV                        :      0.000u      0.000s      0.000w      1 calls
| JKGrad: ABx                       :      0.117u      0.000s      0.076w      1 calls
| JKGrad: Amnx                      :      1.150u      0.000s      0.688w      1 calls
Grad: XC                            :      1.383u      0.000s      0.830w      1 calls
| Properties                        :      0.567u      0.000s      0.350w   2969 calls
| Functional                        :      0.267u      0.000s      0.175w   2969 calls
| V_xc gradient                     :      0.550u      0.000s      0.300w   2969 calls

**************************************************************************************

Host: aaojha

Timers On : Fri May 14 09:44:31 2021
Timers Off: Fri May 14 09:44:41 2021

Wall Time:        9.39 seconds

                                                       Time (seconds)
Module                                       User      System        Wall        Calls
V: Grid                             :      1.217u      0.000s      0.726w      1 calls
DFH: sparsity prep                  :      0.017u      0.000s      0.012w      1 calls
DFH: initialize()                   :      0.617u      0.017s      0.386w      1 calls
DFH: AO Construction                :      0.267u      0.000s      0.155w      1 calls
DFH: AO-Met. Contraction            :      0.067u      0.000s      0.046w      1 calls
HF: Form core H                     :      0.000u      0.000s      0.002w      1 calls
HF: Form S/X                        :      0.000u      0.000s      0.000w      1 calls
HF: Guess                           :      0.250u      0.000s      0.153w      1 calls
SAD Guess                           :      0.233u      0.000s      0.146w      1 calls
HF: Form G                          :      8.117u      0.117s      4.926w     14 calls
RV: Form V                          :      8.033u      0.117s      4.905w     14 calls
Properties                          :      2.650u      0.033s      1.491w  44565 calls
Functional                          :      4.200u      0.033s      2.588w  44565 calls
V_xc                                :      1.917u      0.067s      1.298w  41594 calls
JK: D                               :      0.000u      0.000s      0.000w     14 calls
JK: USO2AO                          :      0.000u      0.000s      0.000w     14 calls
JK: JK                              :      0.083u      0.000s      0.020w     14 calls
DFH: compute_JK()                   :      0.083u      0.000s      0.020w     14 calls
DFH: Grabbing AOs                   :      0.000u      0.000s      0.000w     14 calls
DFH: compute_J                      :      0.083u      0.000s      0.020w     14 calls
JK: AO2USO                          :      0.000u      0.000s      0.000w     14 calls
HF: Form F                          :      0.000u      0.000s      0.000w     14 calls
HF: Form D                          :      0.000u      0.000s      0.000w     14 calls
HF: DIIS                            :      0.000u      0.000s      0.006w     13 calls
DIISManager::add_entry              :      0.000u      0.000s      0.001w     13 calls
DIISManager::extrapolate            :      0.000u      0.000s      0.001w     13 calls
bMatrix setup                       :      0.000u      0.000s      0.001w     13 calls
bMatrix pseudoinverse               :      0.000u      0.000s      0.000w     13 calls
New vector                          :      0.000u      0.000s      0.000w     13 calls
HF: Form C                          :      0.000u      0.000s      0.003w     13 calls
Grad: V T Perturb                   :      0.083u      0.000s      0.052w      1 calls
Grad: S                             :      0.000u      0.000s      0.001w      1 calls
Grad: JK                            :      1.867u      0.000s      1.142w      1 calls
JKGrad: Amn                         :      0.283u      0.000s      0.171w      1 calls
JKGrad: Awmn                        :      0.000u      0.000s      0.000w      1 calls
JKGrad: AB                          :      0.283u      0.000s      0.164w      1 calls
JKGrad: UV                          :      0.000u      0.000s      0.000w      1 calls
JKGrad: ABx                         :      0.117u      0.000s      0.075w      1 calls
JKGrad: Amnx                        :      1.167u      0.000s      0.699w      1 calls
Grad: XC                            :      1.400u      0.017s      0.841w      1 calls
V_xc gradient                       :      0.517u      0.000s      0.304w   2971 calls

--------------------------------------------------------------------------------------
V: Grid                             :      1.217u      0.000s      0.726w      1 calls
DFH: sparsity prep                  :      0.017u      0.000s      0.012w      1 calls
DFH: initialize()                   :      0.617u      0.017s      0.386w      1 calls
| DFH: AO Construction              :      0.267u      0.000s      0.155w      1 calls
| DFH: AO-Met. Contraction          :      0.067u      0.000s      0.046w      1 calls
HF: Form core H                     :      0.000u      0.000s      0.002w      1 calls
HF: Form S/X                        :      0.000u      0.000s      0.000w      1 calls
HF: Guess                           :      0.250u      0.000s      0.153w      1 calls
| SAD Guess                         :      0.233u      0.000s      0.146w      1 calls
HF: Form G                          :      8.117u      0.117s      4.926w     14 calls
| RV: Form V                        :      8.033u      0.117s      4.905w     14 calls
| | Properties                      :      2.083u      0.017s      1.137w  41594 calls
| | Functional                      :      3.917u      0.033s      2.411w  41594 calls
| | V_xc                            :      1.917u      0.067s      1.298w  41594 calls
| JK: D                             :      0.000u      0.000s      0.000w     14 calls
| JK: USO2AO                        :      0.000u      0.000s      0.000w     14 calls
| JK: JK                            :      0.083u      0.000s      0.020w     14 calls
| | DFH: compute_JK()               :      0.083u      0.000s      0.020w     14 calls
| | | DFH: Grabbing AOs             :      0.000u      0.000s      0.000w     14 calls
| | | DFH: compute_J                :      0.083u      0.000s      0.020w     14 calls
| JK: AO2USO                        :      0.000u      0.000s      0.000w     14 calls
HF: Form F                          :      0.000u      0.000s      0.000w     14 calls
HF: Form D                          :      0.000u      0.000s      0.000w     14 calls
HF: DIIS                            :      0.000u      0.000s      0.006w     13 calls
| DIISManager::add_entry            :      0.000u      0.000s      0.001w     13 calls
| DIISManager::extrapolate          :      0.000u      0.000s      0.001w     13 calls
| | bMatrix setup                   :      0.000u      0.000s      0.001w     13 calls
| | bMatrix pseudoinverse           :      0.000u      0.000s      0.000w     13 calls
| | New vector                      :      0.000u      0.000s      0.000w     13 calls
HF: Form C                          :      0.000u      0.000s      0.003w     13 calls
Grad: V T Perturb                   :      0.083u      0.000s      0.052w      1 calls
Grad: S                             :      0.000u      0.000s      0.001w      1 calls
Grad: JK                            :      1.867u      0.000s      1.142w      1 calls
| JKGrad: Amn                       :      0.283u      0.000s      0.171w      1 calls
| JKGrad: Awmn                      :      0.000u      0.000s      0.000w      1 calls
| JKGrad: AB                        :      0.283u      0.000s      0.164w      1 calls
| JKGrad: UV                        :      0.000u      0.000s      0.000w      1 calls
| JKGrad: ABx                       :      0.117u      0.000s      0.075w      1 calls
| JKGrad: Amnx                      :      1.167u      0.000s      0.699w      1 calls
Grad: XC                            :      1.400u      0.017s      0.841w      1 calls
| Properties                        :      0.567u      0.017s      0.354w   2971 calls
| Functional                        :      0.283u      0.000s      0.178w   2971 calls
| V_xc gradient                     :      0.517u      0.000s      0.304w   2971 calls

**************************************************************************************

Host: aaojha

Timers On : Fri May 14 09:44:41 2021
Timers Off: Fri May 14 09:44:51 2021

Wall Time:       10.10 seconds

                                                       Time (seconds)
Module                                       User      System        Wall        Calls
V: Grid                             :      1.317u      0.033s      0.810w      1 calls
DFH: sparsity prep                  :      0.017u      0.000s      0.013w      1 calls
DFH: initialize()                   :      0.650u      0.033s      0.408w      1 calls
DFH: AO Construction                :      0.250u      0.017s      0.165w      1 calls
DFH: AO-Met. Contraction            :      0.083u      0.000s      0.049w      1 calls
HF: Form core H                     :      0.000u      0.000s      0.002w      1 calls
HF: Form S/X                        :      0.000u      0.000s      0.000w      1 calls
HF: Guess                           :      0.267u      0.000s      0.161w      1 calls
SAD Guess                           :      0.267u      0.000s      0.154w      1 calls
HF: Form G                          :      8.983u      0.133s      5.483w     15 calls
RV: Form V                          :      8.950u      0.133s      5.460w     15 calls
Properties                          :      2.333u      0.033s      1.621w  47744 calls
Functional                          :      5.017u      0.067s      2.870w  47744 calls
V_xc                                :      2.483u      0.050s      1.446w  44760 calls
JK: D                               :      0.000u      0.000s      0.000w     15 calls
JK: USO2AO                          :      0.000u      0.000s      0.000w     15 calls
JK: JK                              :      0.033u      0.000s      0.022w     15 calls
DFH: compute_JK()                   :      0.033u      0.000s      0.022w     15 calls
DFH: Grabbing AOs                   :      0.000u      0.000s      0.000w     15 calls
DFH: compute_J                      :      0.033u      0.000s      0.022w     15 calls
JK: AO2USO                          :      0.000u      0.000s      0.000w     15 calls
HF: Form F                          :      0.000u      0.000s      0.000w     15 calls
HF: Form D                          :      0.000u      0.000s      0.000w     15 calls
HF: DIIS                            :      0.000u      0.000s      0.006w     14 calls
DIISManager::add_entry              :      0.000u      0.000s      0.001w     14 calls
DIISManager::extrapolate            :      0.000u      0.000s      0.002w     14 calls
bMatrix setup                       :      0.000u      0.000s      0.001w     14 calls
bMatrix pseudoinverse               :      0.000u      0.000s      0.000w     14 calls
New vector                          :      0.000u      0.000s      0.000w     14 calls
HF: Form C                          :      0.017u      0.000s      0.004w     14 calls
Grad: V T Perturb                   :      0.083u      0.000s      0.052w      1 calls
Grad: S                             :      0.000u      0.000s      0.001w      1 calls
Grad: JK                            :      1.867u      0.000s      1.126w      1 calls
JKGrad: Amn                         :      0.300u      0.000s      0.174w      1 calls
JKGrad: Awmn                        :      0.000u      0.000s      0.000w      1 calls
JKGrad: AB                          :      0.267u      0.000s      0.166w      1 calls
JKGrad: UV                          :      0.000u      0.000s      0.000w      1 calls
JKGrad: ABx                         :      0.133u      0.000s      0.074w      1 calls
JKGrad: Amnx                        :      1.150u      0.000s      0.689w      1 calls
Grad: XC                            :      1.417u      0.017s      0.859w      1 calls
V_xc gradient                       :      0.383u      0.000s      0.309w   2984 calls

--------------------------------------------------------------------------------------
V: Grid                             :      1.317u      0.033s      0.810w      1 calls
DFH: sparsity prep                  :      0.017u      0.000s      0.013w      1 calls
DFH: initialize()                   :      0.650u      0.033s      0.408w      1 calls
| DFH: AO Construction              :      0.250u      0.017s      0.165w      1 calls
| DFH: AO-Met. Contraction          :      0.083u      0.000s      0.049w      1 calls
HF: Form core H                     :      0.000u      0.000s      0.002w      1 calls
HF: Form S/X                        :      0.000u      0.000s      0.000w      1 calls
HF: Guess                           :      0.267u      0.000s      0.161w      1 calls
| SAD Guess                         :      0.267u      0.000s      0.154w      1 calls
HF: Form G                          :      8.983u      0.133s      5.483w     15 calls
| RV: Form V                        :      8.950u      0.133s      5.460w     15 calls
| | Properties                      :      1.717u      0.017s      1.258w  44760 calls
| | Functional                      :      4.617u      0.067s      2.688w  44760 calls
| | V_xc                            :      2.483u      0.050s      1.446w  44760 calls
| JK: D                             :      0.000u      0.000s      0.000w     15 calls
| JK: USO2AO                        :      0.000u      0.000s      0.000w     15 calls
| JK: JK                            :      0.033u      0.000s      0.022w     15 calls
| | DFH: compute_JK()               :      0.033u      0.000s      0.022w     15 calls
| | | DFH: Grabbing AOs             :      0.000u      0.000s      0.000w     15 calls
| | | DFH: compute_J                :      0.033u      0.000s      0.022w     15 calls
| JK: AO2USO                        :      0.000u      0.000s      0.000w     15 calls
HF: Form F                          :      0.000u      0.000s      0.000w     15 calls
HF: Form D                          :      0.000u      0.000s      0.000w     15 calls
HF: DIIS                            :      0.000u      0.000s      0.006w     14 calls
| DIISManager::add_entry            :      0.000u      0.000s      0.001w     14 calls
| DIISManager::extrapolate          :      0.000u      0.000s      0.002w     14 calls
| | bMatrix setup                   :      0.000u      0.000s      0.001w     14 calls
| | bMatrix pseudoinverse           :      0.000u      0.000s      0.000w     14 calls
| | New vector                      :      0.000u      0.000s      0.000w     14 calls
HF: Form C                          :      0.017u      0.000s      0.004w     14 calls
Grad: V T Perturb                   :      0.083u      0.000s      0.052w      1 calls
Grad: S                             :      0.000u      0.000s      0.001w      1 calls
Grad: JK                            :      1.867u      0.000s      1.126w      1 calls
| JKGrad: Amn                       :      0.300u      0.000s      0.174w      1 calls
| JKGrad: Awmn                      :      0.000u      0.000s      0.000w      1 calls
| JKGrad: AB                        :      0.267u      0.000s      0.166w      1 calls
| JKGrad: UV                        :      0.000u      0.000s      0.000w      1 calls
| JKGrad: ABx                       :      0.133u      0.000s      0.074w      1 calls
| JKGrad: Amnx                      :      1.150u      0.000s      0.689w      1 calls
Grad: XC                            :      1.417u      0.017s      0.859w      1 calls
| Properties                        :      0.617u      0.017s      0.363w   2984 calls
| Functional                        :      0.400u      0.000s      0.182w   2984 calls
| V_xc gradient                     :      0.383u      0.000s      0.309w   2984 calls

**************************************************************************************

Host: aaojha

Timers On : Fri May 14 09:44:51 2021
Timers Off: Fri May 14 09:45:01 2021

Wall Time:        9.84 seconds

                                                       Time (seconds)
Module                                       User      System        Wall        Calls
V: Grid                             :      1.233u      0.017s      0.741w      1 calls
DFH: sparsity prep                  :      0.033u      0.000s      0.013w      1 calls
DFH: initialize()                   :      0.650u      0.017s      0.396w      1 calls
DFH: AO Construction                :      0.267u      0.000s      0.159w      1 calls
DFH: AO-Met. Contraction            :      0.083u      0.017s      0.047w      1 calls
HF: Form core H                     :      0.000u      0.000s      0.003w      1 calls
HF: Form S/X                        :      0.000u      0.000s      0.001w      1 calls
HF: Guess                           :      0.300u      0.000s      0.176w      1 calls
SAD Guess                           :      0.267u      0.000s      0.159w      1 calls
HF: Form G                          :      8.783u      0.183s      5.372w     15 calls
RV: Form V                          :      8.767u      0.183s      5.350w     15 calls
Properties                          :      2.433u      0.050s      1.581w  47616 calls
Functional                          :      5.100u      0.083s      2.818w  47616 calls
V_xc                                :      2.050u      0.050s      1.411w  44640 calls
JK: D                               :      0.000u      0.000s      0.000w     15 calls
JK: USO2AO                          :      0.000u      0.000s      0.000w     15 calls
JK: JK                              :      0.017u      0.000s      0.021w     15 calls
DFH: compute_JK()                   :      0.017u      0.000s      0.021w     15 calls
DFH: Grabbing AOs                   :      0.000u      0.000s      0.000w     15 calls
DFH: compute_J                      :      0.017u      0.000s      0.021w     15 calls
JK: AO2USO                          :      0.000u      0.000s      0.000w     15 calls
HF: Form F                          :      0.000u      0.000s      0.000w     15 calls
HF: Form D                          :      0.000u      0.000s      0.000w     15 calls
HF: DIIS                            :      0.000u      0.000s      0.006w     14 calls
DIISManager::add_entry              :      0.000u      0.000s      0.001w     14 calls
DIISManager::extrapolate            :      0.000u      0.000s      0.002w     14 calls
bMatrix setup                       :      0.000u      0.000s      0.001w     14 calls
bMatrix pseudoinverse               :      0.000u      0.000s      0.000w     14 calls
New vector                          :      0.000u      0.000s      0.000w     14 calls
HF: Form C                          :      0.017u      0.000s      0.003w     14 calls
Grad: V T Perturb                   :      0.083u      0.000s      0.051w      1 calls
Grad: S                             :      0.000u      0.000s      0.001w      1 calls
Grad: JK                            :      1.850u      0.000s      1.119w      1 calls
JKGrad: Amn                         :      0.283u      0.000s      0.171w      1 calls
JKGrad: Awmn                        :      0.000u      0.000s      0.000w      1 calls
JKGrad: AB                          :      0.267u      0.000s      0.167w      1 calls
JKGrad: UV                          :      0.000u      0.000s      0.000w      1 calls
JKGrad: ABx                         :      0.133u      0.000s      0.075w      1 calls
JKGrad: Amnx                        :      1.133u      0.000s      0.684w      1 calls
Grad: XC                            :      1.367u      0.000s      0.824w      1 calls
V_xc gradient                       :      0.467u      0.000s      0.296w   2976 calls

--------------------------------------------------------------------------------------
V: Grid                             :      1.233u      0.017s      0.741w      1 calls
DFH: sparsity prep                  :      0.033u      0.000s      0.013w      1 calls
DFH: initialize()                   :      0.650u      0.017s      0.396w      1 calls
| DFH: AO Construction              :      0.267u      0.000s      0.159w      1 calls
| DFH: AO-Met. Contraction          :      0.083u      0.017s      0.047w      1 calls
HF: Form core H                     :      0.000u      0.000s      0.003w      1 calls
HF: Form S/X                        :      0.000u      0.000s      0.001w      1 calls
HF: Guess                           :      0.300u      0.000s      0.176w      1 calls
| SAD Guess                         :      0.267u      0.000s      0.159w      1 calls
HF: Form G                          :      8.783u      0.183s      5.372w     15 calls
| RV: Form V                        :      8.767u      0.183s      5.350w     15 calls
| | Properties                      :      1.867u      0.050s      1.233w  44640 calls
| | Functional                      :      4.783u      0.083s      2.642w  44640 calls
| | V_xc                            :      2.050u      0.050s      1.411w  44640 calls
| JK: D                             :      0.000u      0.000s      0.000w     15 calls
| JK: USO2AO                        :      0.000u      0.000s      0.000w     15 calls
| JK: JK                            :      0.017u      0.000s      0.021w     15 calls
| | DFH: compute_JK()               :      0.017u      0.000s      0.021w     15 calls
| | | DFH: Grabbing AOs             :      0.000u      0.000s      0.000w     15 calls
| | | DFH: compute_J                :      0.017u      0.000s      0.021w     15 calls
| JK: AO2USO                        :      0.000u      0.000s      0.000w     15 calls
HF: Form F                          :      0.000u      0.000s      0.000w     15 calls
HF: Form D                          :      0.000u      0.000s      0.000w     15 calls
HF: DIIS                            :      0.000u      0.000s      0.006w     14 calls
| DIISManager::add_entry            :      0.000u      0.000s      0.001w     14 calls
| DIISManager::extrapolate          :      0.000u      0.000s      0.002w     14 calls
| | bMatrix setup                   :      0.000u      0.000s      0.001w     14 calls
| | bMatrix pseudoinverse           :      0.000u      0.000s      0.000w     14 calls
| | New vector                      :      0.000u      0.000s      0.000w     14 calls
HF: Form C                          :      0.017u      0.000s      0.003w     14 calls
Grad: V T Perturb                   :      0.083u      0.000s      0.051w      1 calls
Grad: S                             :      0.000u      0.000s      0.001w      1 calls
Grad: JK                            :      1.850u      0.000s      1.119w      1 calls
| JKGrad: Amn                       :      0.283u      0.000s      0.171w      1 calls
| JKGrad: Awmn                      :      0.000u      0.000s      0.000w      1 calls
| JKGrad: AB                        :      0.267u      0.000s      0.167w      1 calls
| JKGrad: UV                        :      0.000u      0.000s      0.000w      1 calls
| JKGrad: ABx                       :      0.133u      0.000s      0.075w      1 calls
| JKGrad: Amnx                      :      1.133u      0.000s      0.684w      1 calls
Grad: XC                            :      1.367u      0.000s      0.824w      1 calls
| Properties                        :      0.567u      0.000s      0.348w   2976 calls
| Functional                        :      0.317u      0.000s      0.176w   2976 calls
| V_xc gradient                     :      0.467u      0.000s      0.296w   2976 calls

**************************************************************************************

Host: aaojha

Timers On : Fri May 14 09:45:01 2021
Timers Off: Fri May 14 09:45:11 2021

Wall Time:       10.08 seconds

                                                       Time (seconds)
Module                                       User      System        Wall        Calls
V: Grid                             :      1.217u      0.033s      0.748w      1 calls
DFH: sparsity prep                  :      0.017u      0.000s      0.013w      1 calls
DFH: initialize()                   :      0.633u      0.033s      0.400w      1 calls
DFH: AO Construction                :      0.267u      0.000s      0.161w      1 calls
DFH: AO-Met. Contraction            :      0.067u      0.000s      0.047w      1 calls
HF: Form core H                     :      0.000u      0.000s      0.002w      1 calls
HF: Form S/X                        :      0.000u      0.000s      0.000w      1 calls
HF: Guess                           :      0.267u      0.000s      0.156w      1 calls
SAD Guess                           :      0.250u      0.000s      0.149w      1 calls
HF: Form G                          :      9.000u      0.083s      5.461w     15 calls
RV: Form V                          :      8.967u      0.083s      5.437w     15 calls
Properties                          :      2.483u      0.017s      1.610w  47568 calls
Functional                          :      4.900u      0.067s      2.867w  47568 calls
V_xc                                :      2.267u      0.017s      1.444w  44595 calls
JK: D                               :      0.000u      0.000s      0.000w     15 calls
JK: USO2AO                          :      0.000u      0.000s      0.000w     15 calls
JK: JK                              :      0.033u      0.000s      0.023w     15 calls
DFH: compute_JK()                   :      0.033u      0.000s      0.023w     15 calls
DFH: Grabbing AOs                   :      0.000u      0.000s      0.000w     15 calls
DFH: compute_J                      :      0.033u      0.000s      0.023w     15 calls
JK: AO2USO                          :      0.000u      0.000s      0.000w     15 calls
HF: Form F                          :      0.000u      0.000s      0.000w     15 calls
HF: Form D                          :      0.000u      0.000s      0.000w     15 calls
HF: DIIS                            :      0.017u      0.000s      0.007w     14 calls
DIISManager::add_entry              :      0.000u      0.000s      0.001w     14 calls
DIISManager::extrapolate            :      0.000u      0.000s      0.002w     14 calls
bMatrix setup                       :      0.000u      0.000s      0.001w     14 calls
bMatrix pseudoinverse               :      0.000u      0.000s      0.001w     14 calls
New vector                          :      0.000u      0.000s      0.000w     14 calls
HF: Form C                          :      0.017u      0.000s      0.003w     14 calls
Grad: V T Perturb                   :      0.100u      0.000s      0.056w      1 calls
Grad: S                             :      0.000u      0.000s      0.001w      1 calls
Grad: JK                            :      1.983u      0.000s      1.202w      1 calls
JKGrad: Amn                         :      0.300u      0.000s      0.183w      1 calls
JKGrad: Awmn                        :      0.000u      0.000s      0.000w      1 calls
JKGrad: AB                          :      0.283u      0.000s      0.174w      1 calls
JKGrad: UV                          :      0.000u      0.000s      0.000w      1 calls
JKGrad: ABx                         :      0.133u      0.000s      0.079w      1 calls
JKGrad: Amnx                        :      1.233u      0.000s      0.742w      1 calls
Grad: XC                            :      1.433u      0.017s      0.864w      1 calls
V_xc gradient                       :      0.533u      0.000s      0.308w   2973 calls

--------------------------------------------------------------------------------------
V: Grid                             :      1.217u      0.033s      0.748w      1 calls
DFH: sparsity prep                  :      0.017u      0.000s      0.013w      1 calls
DFH: initialize()                   :      0.633u      0.033s      0.400w      1 calls
| DFH: AO Construction              :      0.267u      0.000s      0.161w      1 calls
| DFH: AO-Met. Contraction          :      0.067u      0.000s      0.047w      1 calls
HF: Form core H                     :      0.000u      0.000s      0.002w      1 calls
HF: Form S/X                        :      0.000u      0.000s      0.000w      1 calls
HF: Guess                           :      0.267u      0.000s      0.156w      1 calls
| SAD Guess                         :      0.250u      0.000s      0.149w      1 calls
HF: Form G                          :      9.000u      0.083s      5.461w     15 calls
| RV: Form V                        :      8.967u      0.083s      5.437w     15 calls
| | Properties                      :      1.900u      0.017s      1.246w  44595 calls
| | Functional                      :      4.617u      0.050s      2.681w  44595 calls
| | V_xc                            :      2.267u      0.017s      1.444w  44595 calls
| JK: D                             :      0.000u      0.000s      0.000w     15 calls
| JK: USO2AO                        :      0.000u      0.000s      0.000w     15 calls
| JK: JK                            :      0.033u      0.000s      0.023w     15 calls
| | DFH: compute_JK()               :      0.033u      0.000s      0.023w     15 calls
| | | DFH: Grabbing AOs             :      0.000u      0.000s      0.000w     15 calls
| | | DFH: compute_J                :      0.033u      0.000s      0.023w     15 calls
| JK: AO2USO                        :      0.000u      0.000s      0.000w     15 calls
HF: Form F                          :      0.000u      0.000s      0.000w     15 calls
HF: Form D                          :      0.000u      0.000s      0.000w     15 calls
HF: DIIS                            :      0.017u      0.000s      0.007w     14 calls
| DIISManager::add_entry            :      0.000u      0.000s      0.001w     14 calls
| DIISManager::extrapolate          :      0.000u      0.000s      0.002w     14 calls
| | bMatrix setup                   :      0.000u      0.000s      0.001w     14 calls
| | bMatrix pseudoinverse           :      0.000u      0.000s      0.001w     14 calls
| | New vector                      :      0.000u      0.000s      0.000w     14 calls
HF: Form C                          :      0.017u      0.000s      0.003w     14 calls
Grad: V T Perturb                   :      0.100u      0.000s      0.056w      1 calls
Grad: S                             :      0.000u      0.000s      0.001w      1 calls
Grad: JK                            :      1.983u      0.000s      1.202w      1 calls
| JKGrad: Amn                       :      0.300u      0.000s      0.183w      1 calls
| JKGrad: Awmn                      :      0.000u      0.000s      0.000w      1 calls
| JKGrad: AB                        :      0.283u      0.000s      0.174w      1 calls
| JKGrad: UV                        :      0.000u      0.000s      0.000w      1 calls
| JKGrad: ABx                       :      0.133u      0.000s      0.079w      1 calls
| JKGrad: Amnx                      :      1.233u      0.000s      0.742w      1 calls
Grad: XC                            :      1.433u      0.017s      0.864w      1 calls
| Properties                        :      0.583u      0.000s      0.364w   2973 calls
| Functional                        :      0.283u      0.017s      0.186w   2973 calls
| V_xc gradient                     :      0.533u      0.000s      0.308w   2973 calls

**************************************************************************************

Host: aaojha

Timers On : Fri May 14 09:45:12 2021
Timers Off: Fri May 14 09:45:22 2021

Wall Time:       10.14 seconds

                                                       Time (seconds)
Module                                       User      System        Wall        Calls
V: Grid                             :      1.233u      0.017s      0.755w      1 calls
DFH: sparsity prep                  :      0.017u      0.000s      0.013w      1 calls
DFH: initialize()                   :      0.650u      0.033s      0.403w      1 calls
DFH: AO Construction                :      0.267u      0.000s      0.163w      1 calls
DFH: AO-Met. Contraction            :      0.083u      0.017s      0.046w      1 calls
HF: Form core H                     :      0.000u      0.000s      0.002w      1 calls
HF: Form S/X                        :      0.000u      0.000s      0.000w      1 calls
HF: Guess                           :      0.267u      0.000s      0.154w      1 calls
SAD Guess                           :      0.250u      0.000s      0.147w      1 calls
HF: Form G                          :      9.017u      0.117s      5.513w     15 calls
RV: Form V                          :      8.967u      0.117s      5.490w     15 calls
Properties                          :      2.633u      0.050s      1.644w  47472 calls
Functional                          :      4.533u      0.067s      2.872w  47472 calls
V_xc                                :      2.700u      0.017s      1.455w  44505 calls
JK: D                               :      0.000u      0.000s      0.000w     15 calls
JK: USO2AO                          :      0.000u      0.000s      0.000w     15 calls
JK: JK                              :      0.050u      0.000s      0.022w     15 calls
DFH: compute_JK()                   :      0.050u      0.000s      0.022w     15 calls
DFH: Grabbing AOs                   :      0.000u      0.000s      0.000w     15 calls
DFH: compute_J                      :      0.050u      0.000s      0.022w     15 calls
JK: AO2USO                          :      0.000u      0.000s      0.000w     15 calls
HF: Form F                          :      0.000u      0.000s      0.000w     15 calls
HF: Form D                          :      0.000u      0.000s      0.000w     15 calls
HF: DIIS                            :      0.000u      0.000s      0.008w     14 calls
DIISManager::add_entry              :      0.000u      0.000s      0.001w     14 calls
DIISManager::extrapolate            :      0.000u      0.000s      0.003w     14 calls
bMatrix setup                       :      0.000u      0.000s      0.002w     14 calls
bMatrix pseudoinverse               :      0.000u      0.000s      0.001w     14 calls
New vector                          :      0.000u      0.000s      0.000w     14 calls
HF: Form C                          :      0.017u      0.000s      0.003w     14 calls
Grad: V T Perturb                   :      0.083u      0.000s      0.051w      1 calls
Grad: S                             :      0.017u      0.000s      0.001w      1 calls
Grad: JK                            :      1.950u      0.017s      1.228w      1 calls
JKGrad: Amn                         :      0.300u      0.000s      0.179w      1 calls
JKGrad: Awmn                        :      0.000u      0.000s      0.000w      1 calls
JKGrad: AB                          :      0.283u      0.017s      0.185w      1 calls
JKGrad: UV                          :      0.000u      0.000s      0.000w      1 calls
JKGrad: ABx                         :      0.133u      0.000s      0.084w      1 calls
JKGrad: Amnx                        :      1.217u      0.000s      0.755w      1 calls
Grad: XC                            :      1.400u      0.017s      0.863w      1 calls
V_xc gradient                       :      0.367u      0.000s      0.309w   2967 calls

--------------------------------------------------------------------------------------
V: Grid                             :      1.233u      0.017s      0.755w      1 calls
DFH: sparsity prep                  :      0.017u      0.000s      0.013w      1 calls
DFH: initialize()                   :      0.650u      0.033s      0.403w      1 calls
| DFH: AO Construction              :      0.267u      0.000s      0.163w      1 calls
| DFH: AO-Met. Contraction          :      0.083u      0.017s      0.046w      1 calls
HF: Form core H                     :      0.000u      0.000s      0.002w      1 calls
HF: Form S/X                        :      0.000u      0.000s      0.000w      1 calls
HF: Guess                           :      0.267u      0.000s      0.154w      1 calls
| SAD Guess                         :      0.250u      0.000s      0.147w      1 calls
HF: Form G                          :      9.017u      0.117s      5.513w     15 calls
| RV: Form V                        :      8.967u      0.117s      5.490w     15 calls
| | Properties                      :      1.967u      0.033s      1.278w  44505 calls
| | Functional                      :      4.167u      0.067s      2.689w  44505 calls
| | V_xc                            :      2.700u      0.017s      1.455w  44505 calls
| JK: D                             :      0.000u      0.000s      0.000w     15 calls
| JK: USO2AO                        :      0.000u      0.000s      0.000w     15 calls
| JK: JK                            :      0.050u      0.000s      0.022w     15 calls
| | DFH: compute_JK()               :      0.050u      0.000s      0.022w     15 calls
| | | DFH: Grabbing AOs             :      0.000u      0.000s      0.000w     15 calls
| | | DFH: compute_J                :      0.050u      0.000s      0.022w     15 calls
| JK: AO2USO                        :      0.000u      0.000s      0.000w     15 calls
HF: Form F                          :      0.000u      0.000s      0.000w     15 calls
HF: Form D                          :      0.000u      0.000s      0.000w     15 calls
HF: DIIS                            :      0.000u      0.000s      0.008w     14 calls
| DIISManager::add_entry            :      0.000u      0.000s      0.001w     14 calls
| DIISManager::extrapolate          :      0.000u      0.000s      0.003w     14 calls
| | bMatrix setup                   :      0.000u      0.000s      0.002w     14 calls
| | bMatrix pseudoinverse           :      0.000u      0.000s      0.001w     14 calls
| | New vector                      :      0.000u      0.000s      0.000w     14 calls
HF: Form C                          :      0.017u      0.000s      0.003w     14 calls
Grad: V T Perturb                   :      0.083u      0.000s      0.051w      1 calls
Grad: S                             :      0.017u      0.000s      0.001w      1 calls
Grad: JK                            :      1.950u      0.017s      1.228w      1 calls
| JKGrad: Amn                       :      0.300u      0.000s      0.179w      1 calls
| JKGrad: Awmn                      :      0.000u      0.000s      0.000w      1 calls
| JKGrad: AB                        :      0.283u      0.017s      0.185w      1 calls
| JKGrad: UV                        :      0.000u      0.000s      0.000w      1 calls
| JKGrad: ABx                       :      0.133u      0.000s      0.084w      1 calls
| JKGrad: Amnx                      :      1.217u      0.000s      0.755w      1 calls
Grad: XC                            :      1.400u      0.017s      0.863w      1 calls
| Properties                        :      0.667u      0.017s      0.366w   2967 calls
| Functional                        :      0.367u      0.000s      0.183w   2967 calls
| V_xc gradient                     :      0.367u      0.000s      0.309w   2967 calls

**************************************************************************************

Host: aaojha

Timers On : Fri May 14 09:45:22 2021
Timers Off: Fri May 14 09:45:32 2021

Wall Time:        9.60 seconds

                                                       Time (seconds)
Module                                       User      System        Wall        Calls
V: Grid                             :      1.233u      0.033s      0.758w      1 calls
DFH: sparsity prep                  :      0.017u      0.000s      0.013w      1 calls
DFH: initialize()                   :      0.667u      0.033s      0.410w      1 calls
DFH: AO Construction                :      0.267u      0.017s      0.162w      1 calls
DFH: AO-Met. Contraction            :      0.083u      0.000s      0.049w      1 calls
HF: Form core H                     :      0.000u      0.000s      0.002w      1 calls
HF: Form S/X                        :      0.000u      0.000s      0.000w      1 calls
HF: Guess                           :      0.267u      0.000s      0.160w      1 calls
SAD Guess                           :      0.250u      0.000s      0.153w      1 calls
HF: Form G                          :      8.267u      0.100s      5.018w     14 calls
RV: Form V                          :      8.200u      0.100s      4.997w     14 calls
Properties                          :      2.450u      0.050s      1.509w  44535 calls
Functional                          :      4.583u      0.050s      2.643w  44535 calls
V_xc                                :      1.983u      0.017s      1.322w  41566 calls
JK: D                               :      0.000u      0.000s      0.000w     14 calls
JK: USO2AO                          :      0.000u      0.000s      0.000w     14 calls
JK: JK                              :      0.067u      0.000s      0.020w     14 calls
DFH: compute_JK()                   :      0.067u      0.000s      0.020w     14 calls
DFH: Grabbing AOs                   :      0.000u      0.000s      0.000w     14 calls
DFH: compute_J                      :      0.067u      0.000s      0.020w     14 calls
JK: AO2USO                          :      0.000u      0.000s      0.000w     14 calls
HF: Form F                          :      0.000u      0.000s      0.000w     14 calls
HF: Form D                          :      0.000u      0.000s      0.000w     14 calls
HF: DIIS                            :      0.017u      0.000s      0.006w     13 calls
DIISManager::add_entry              :      0.000u      0.000s      0.001w     13 calls
DIISManager::extrapolate            :      0.017u      0.000s      0.001w     13 calls
bMatrix setup                       :      0.000u      0.000s      0.001w     13 calls
bMatrix pseudoinverse               :      0.000u      0.000s      0.000w     13 calls
New vector                          :      0.017u      0.000s      0.000w     13 calls
HF: Form C                          :      0.000u      0.000s      0.003w     13 calls
Grad: V T Perturb                   :      0.083u      0.000s      0.054w      1 calls
Grad: S                             :      0.000u      0.000s      0.001w      1 calls
Grad: JK                            :      1.900u      0.017s      1.142w      1 calls
JKGrad: Amn                         :      0.300u      0.000s      0.179w      1 calls
JKGrad: Awmn                        :      0.000u      0.000s      0.000w      1 calls
JKGrad: AB                          :      0.283u      0.000s      0.175w      1 calls
JKGrad: UV                          :      0.000u      0.000s      0.000w      1 calls
JKGrad: ABx                         :      0.133u      0.017s      0.079w      1 calls
JKGrad: Amnx                        :      1.150u      0.000s      0.695w      1 calls
Grad: XC                            :      1.417u      0.017s      0.851w      1 calls
V_xc gradient                       :      0.500u      0.000s      0.309w   2969 calls

--------------------------------------------------------------------------------------
V: Grid                             :      1.233u      0.033s      0.758w      1 calls
DFH: sparsity prep                  :      0.017u      0.000s      0.013w      1 calls
DFH: initialize()                   :      0.667u      0.033s      0.410w      1 calls
| DFH: AO Construction              :      0.267u      0.017s      0.162w      1 calls
| DFH: AO-Met. Contraction          :      0.083u      0.000s      0.049w      1 calls
HF: Form core H                     :      0.000u      0.000s      0.002w      1 calls
HF: Form S/X                        :      0.000u      0.000s      0.000w      1 calls
HF: Guess                           :      0.267u      0.000s      0.160w      1 calls
| SAD Guess                         :      0.250u      0.000s      0.153w      1 calls
HF: Form G                          :      8.267u      0.100s      5.018w     14 calls
| RV: Form V                        :      8.200u      0.100s      4.997w     14 calls
| | Properties                      :      1.800u      0.050s      1.151w  41566 calls
| | Functional                      :      4.333u      0.033s      2.464w  41566 calls
| | V_xc                            :      1.983u      0.017s      1.322w  41566 calls
| JK: D                             :      0.000u      0.000s      0.000w     14 calls
| JK: USO2AO                        :      0.000u      0.000s      0.000w     14 calls
| JK: JK                            :      0.067u      0.000s      0.020w     14 calls
| | DFH: compute_JK()               :      0.067u      0.000s      0.020w     14 calls
| | | DFH: Grabbing AOs             :      0.000u      0.000s      0.000w     14 calls
| | | DFH: compute_J                :      0.067u      0.000s      0.020w     14 calls
| JK: AO2USO                        :      0.000u      0.000s      0.000w     14 calls
HF: Form F                          :      0.000u      0.000s      0.000w     14 calls
HF: Form D                          :      0.000u      0.000s      0.000w     14 calls
HF: DIIS                            :      0.017u      0.000s      0.006w     13 calls
| DIISManager::add_entry            :      0.000u      0.000s      0.001w     13 calls
| DIISManager::extrapolate          :      0.017u      0.000s      0.001w     13 calls
| | bMatrix setup                   :      0.000u      0.000s      0.001w     13 calls
| | bMatrix pseudoinverse           :      0.000u      0.000s      0.000w     13 calls
| | New vector                      :      0.017u      0.000s      0.000w     13 calls
HF: Form C                          :      0.000u      0.000s      0.003w     13 calls
Grad: V T Perturb                   :      0.083u      0.000s      0.054w      1 calls
Grad: S                             :      0.000u      0.000s      0.001w      1 calls
Grad: JK                            :      1.900u      0.017s      1.142w      1 calls
| JKGrad: Amn                       :      0.300u      0.000s      0.179w      1 calls
| JKGrad: Awmn                      :      0.000u      0.000s      0.000w      1 calls
| JKGrad: AB                        :      0.283u      0.000s      0.175w      1 calls
| JKGrad: UV                        :      0.000u      0.000s      0.000w      1 calls
| JKGrad: ABx                       :      0.133u      0.017s      0.079w      1 calls
| JKGrad: Amnx                      :      1.150u      0.000s      0.695w      1 calls
Grad: XC                            :      1.417u      0.017s      0.851w      1 calls
| Properties                        :      0.650u      0.000s      0.359w   2969 calls
| Functional                        :      0.250u      0.017s      0.179w   2969 calls
| V_xc gradient                     :      0.500u      0.000s      0.309w   2969 calls

**************************************************************************************

Host: aaojha

Timers On : Fri May 14 09:45:32 2021
Timers Off: Fri May 14 09:45:42 2021

Wall Time:       10.08 seconds

                                                       Time (seconds)
Module                                       User      System        Wall        Calls
V: Grid                             :      1.267u      0.033s      0.778w      1 calls
DFH: sparsity prep                  :      0.017u      0.000s      0.013w      1 calls
DFH: initialize()                   :      0.633u      0.033s      0.402w      1 calls
DFH: AO Construction                :      0.267u      0.000s      0.158w      1 calls
DFH: AO-Met. Contraction            :      0.067u      0.017s      0.047w      1 calls
HF: Form core H                     :      0.000u      0.000s      0.002w      1 calls
HF: Form S/X                        :      0.000u      0.000s      0.000w      1 calls
HF: Guess                           :      0.267u      0.000s      0.158w      1 calls
SAD Guess                           :      0.250u      0.000s      0.151w      1 calls
HF: Form G                          :      9.017u      0.117s      5.491w     15 calls
RV: Form V                          :      8.983u      0.117s      5.468w     15 calls
Properties                          :      2.700u      0.050s      1.634w  47536 calls
Functional                          :      4.750u      0.050s      2.871w  47536 calls
V_xc                                :      2.433u      0.000s      1.445w  44565 calls
JK: D                               :      0.000u      0.000s      0.000w     15 calls
JK: USO2AO                          :      0.000u      0.000s      0.000w     15 calls
JK: JK                              :      0.033u      0.000s      0.022w     15 calls
DFH: compute_JK()                   :      0.033u      0.000s      0.022w     15 calls
DFH: Grabbing AOs                   :      0.000u      0.000s      0.000w     15 calls
DFH: compute_J                      :      0.033u      0.000s      0.022w     15 calls
JK: AO2USO                          :      0.000u      0.000s      0.000w     15 calls
HF: Form F                          :      0.000u      0.000s      0.000w     15 calls
HF: Form D                          :      0.000u      0.000s      0.000w     15 calls
HF: DIIS                            :      0.033u      0.000s      0.006w     14 calls
DIISManager::add_entry              :      0.000u      0.000s      0.001w     14 calls
DIISManager::extrapolate            :      0.000u      0.000s      0.002w     14 calls
bMatrix setup                       :      0.000u      0.000s      0.001w     14 calls
bMatrix pseudoinverse               :      0.000u      0.000s      0.000w     14 calls
New vector                          :      0.000u      0.000s      0.000w     14 calls
HF: Form C                          :      0.017u      0.000s      0.003w     14 calls
Grad: V T Perturb                   :      0.100u      0.000s      0.051w      1 calls
Grad: S                             :      0.000u      0.000s      0.001w      1 calls
Grad: JK                            :      1.883u      0.000s      1.146w      1 calls
JKGrad: Amn                         :      0.283u      0.000s      0.175w      1 calls
JKGrad: Awmn                        :      0.000u      0.000s      0.000w      1 calls
JKGrad: AB                          :      0.283u      0.000s      0.171w      1 calls
JKGrad: UV                          :      0.000u      0.000s      0.000w      1 calls
JKGrad: ABx                         :      0.133u      0.000s      0.076w      1 calls
JKGrad: Amnx                        :      1.167u      0.000s      0.700w      1 calls
Grad: XC                            :      1.433u      0.000s      0.861w      1 calls
V_xc gradient                       :      0.417u      0.000s      0.308w   2971 calls

--------------------------------------------------------------------------------------
V: Grid                             :      1.267u      0.033s      0.778w      1 calls
DFH: sparsity prep                  :      0.017u      0.000s      0.013w      1 calls
DFH: initialize()                   :      0.633u      0.033s      0.402w      1 calls
| DFH: AO Construction              :      0.267u      0.000s      0.158w      1 calls
| DFH: AO-Met. Contraction          :      0.067u      0.017s      0.047w      1 calls
HF: Form core H                     :      0.000u      0.000s      0.002w      1 calls
HF: Form S/X                        :      0.000u      0.000s      0.000w      1 calls
HF: Guess                           :      0.267u      0.000s      0.158w      1 calls
| SAD Guess                         :      0.250u      0.000s      0.151w      1 calls
HF: Form G                          :      9.017u      0.117s      5.491w     15 calls
| RV: Form V                        :      8.983u      0.117s      5.468w     15 calls
| | Properties                      :      2.117u      0.050s      1.268w  44565 calls
| | Functional                      :      4.333u      0.050s      2.688w  44565 calls
| | V_xc                            :      2.433u      0.000s      1.445w  44565 calls
| JK: D                             :      0.000u      0.000s      0.000w     15 calls
| JK: USO2AO                        :      0.000u      0.000s      0.000w     15 calls
| JK: JK                            :      0.033u      0.000s      0.022w     15 calls
| | DFH: compute_JK()               :      0.033u      0.000s      0.022w     15 calls
| | | DFH: Grabbing AOs             :      0.000u      0.000s      0.000w     15 calls
| | | DFH: compute_J                :      0.033u      0.000s      0.022w     15 calls
| JK: AO2USO                        :      0.000u      0.000s      0.000w     15 calls
HF: Form F                          :      0.000u      0.000s      0.000w     15 calls
HF: Form D                          :      0.000u      0.000s      0.000w     15 calls
HF: DIIS                            :      0.033u      0.000s      0.006w     14 calls
| DIISManager::add_entry            :      0.000u      0.000s      0.001w     14 calls
| DIISManager::extrapolate          :      0.000u      0.000s      0.002w     14 calls
| | bMatrix setup                   :      0.000u      0.000s      0.001w     14 calls
| | bMatrix pseudoinverse           :      0.000u      0.000s      0.000w     14 calls
| | New vector                      :      0.000u      0.000s      0.000w     14 calls
HF: Form C                          :      0.017u      0.000s      0.003w     14 calls
Grad: V T Perturb                   :      0.100u      0.000s      0.051w      1 calls
Grad: S                             :      0.000u      0.000s      0.001w      1 calls
Grad: JK                            :      1.883u      0.000s      1.146w      1 calls
| JKGrad: Amn                       :      0.283u      0.000s      0.175w      1 calls
| JKGrad: Awmn                      :      0.000u      0.000s      0.000w      1 calls
| JKGrad: AB                        :      0.283u      0.000s      0.171w      1 calls
| JKGrad: UV                        :      0.000u      0.000s      0.000w      1 calls
| JKGrad: ABx                       :      0.133u      0.000s      0.076w      1 calls
| JKGrad: Amnx                      :      1.167u      0.000s      0.700w      1 calls
Grad: XC                            :      1.433u      0.000s      0.861w      1 calls
| Properties                        :      0.583u      0.000s      0.365w   2971 calls
| Functional                        :      0.417u      0.000s      0.183w   2971 calls
| V_xc gradient                     :      0.417u      0.000s      0.308w   2971 calls

**************************************************************************************

Host: aaojha

Timers On : Fri May 14 09:45:42 2021
Timers Off: Fri May 14 09:45:52 2021

Wall Time:       10.09 seconds

                                                       Time (seconds)
Module                                       User      System        Wall        Calls
V: Grid                             :      1.200u      0.017s      0.731w      1 calls
DFH: sparsity prep                  :      0.017u      0.000s      0.013w      1 calls
DFH: initialize()                   :      0.617u      0.050s      0.395w      1 calls
DFH: AO Construction                :      0.267u      0.017s      0.160w      1 calls
DFH: AO-Met. Contraction            :      0.067u      0.017s      0.046w      1 calls
HF: Form core H                     :      0.000u      0.000s      0.002w      1 calls
HF: Form S/X                        :      0.000u      0.000s      0.000w      1 calls
HF: Guess                           :      0.267u      0.000s      0.158w      1 calls
SAD Guess                           :      0.250u      0.000s      0.151w      1 calls
HF: Form G                          :      9.250u      0.133s      5.623w     15 calls
RV: Form V                          :      9.183u      0.133s      5.601w     15 calls
Properties                          :      2.650u      0.033s      1.579w  47472 calls
Functional                          :      5.017u      0.050s      3.067w  47472 calls
V_xc                                :      2.350u      0.033s      1.419w  44505 calls
JK: D                               :      0.000u      0.000s      0.000w     15 calls
JK: USO2AO                          :      0.000u      0.000s      0.000w     15 calls
JK: JK                              :      0.067u      0.000s      0.022w     15 calls
DFH: compute_JK()                   :      0.067u      0.000s      0.022w     15 calls
DFH: Grabbing AOs                   :      0.000u      0.000s      0.000w     15 calls
DFH: compute_J                      :      0.067u      0.000s      0.022w     15 calls
JK: AO2USO                          :      0.000u      0.000s      0.000w     15 calls
HF: Form F                          :      0.000u      0.000s      0.000w     15 calls
HF: Form D                          :      0.000u      0.000s      0.000w     15 calls
HF: DIIS                            :      0.017u      0.000s      0.016w     14 calls
DIISManager::add_entry              :      0.000u      0.000s      0.001w     14 calls
DIISManager::extrapolate            :      0.017u      0.000s      0.011w     14 calls
bMatrix setup                       :      0.000u      0.000s      0.010w     14 calls
bMatrix pseudoinverse               :      0.017u      0.000s      0.001w     14 calls
New vector                          :      0.000u      0.000s      0.001w     14 calls
HF: Form C                          :      0.000u      0.000s      0.004w     14 calls
Grad: V T Perturb                   :      0.083u      0.000s      0.052w      1 calls
Grad: S                             :      0.000u      0.000s      0.001w      1 calls
Grad: JK                            :      1.917u      0.000s      1.154w      1 calls
JKGrad: Amn                         :      0.300u      0.000s      0.172w      1 calls
JKGrad: Awmn                        :      0.000u      0.000s      0.000w      1 calls
JKGrad: AB                          :      0.283u      0.000s      0.170w      1 calls
JKGrad: UV                          :      0.000u      0.000s      0.000w      1 calls
JKGrad: ABx                         :      0.117u      0.000s      0.077w      1 calls
JKGrad: Amnx                        :      1.200u      0.000s      0.714w      1 calls
Grad: XC                            :      1.350u      0.000s      0.822w      1 calls
V_xc gradient                       :      0.367u      0.000s      0.288w   2967 calls

--------------------------------------------------------------------------------------
V: Grid                             :      1.200u      0.017s      0.731w      1 calls
DFH: sparsity prep                  :      0.017u      0.000s      0.013w      1 calls
DFH: initialize()                   :      0.617u      0.050s      0.395w      1 calls
| DFH: AO Construction              :      0.267u      0.017s      0.160w      1 calls
| DFH: AO-Met. Contraction          :      0.067u      0.017s      0.046w      1 calls
HF: Form core H                     :      0.000u      0.000s      0.002w      1 calls
HF: Form S/X                        :      0.000u      0.000s      0.000w      1 calls
HF: Guess                           :      0.267u      0.000s      0.158w      1 calls
| SAD Guess                         :      0.250u      0.000s      0.151w      1 calls
HF: Form G                          :      9.250u      0.133s      5.623w     15 calls
| RV: Form V                        :      9.183u      0.133s      5.601w     15 calls
| | Properties                      :      2.000u      0.033s      1.236w  44505 calls
| | Functional                      :      4.683u      0.050s      2.881w  44505 calls
| | V_xc                            :      2.350u      0.033s      1.419w  44505 calls
| JK: D                             :      0.000u      0.000s      0.000w     15 calls
| JK: USO2AO                        :      0.000u      0.000s      0.000w     15 calls
| JK: JK                            :      0.067u      0.000s      0.022w     15 calls
| | DFH: compute_JK()               :      0.067u      0.000s      0.022w     15 calls
| | | DFH: Grabbing AOs             :      0.000u      0.000s      0.000w     15 calls
| | | DFH: compute_J                :      0.067u      0.000s      0.022w     15 calls
| JK: AO2USO                        :      0.000u      0.000s      0.000w     15 calls
HF: Form F                          :      0.000u      0.000s      0.000w     15 calls
HF: Form D                          :      0.000u      0.000s      0.000w     15 calls
HF: DIIS                            :      0.017u      0.000s      0.016w     14 calls
| DIISManager::add_entry            :      0.000u      0.000s      0.001w     14 calls
| DIISManager::extrapolate          :      0.017u      0.000s      0.011w     14 calls
| | bMatrix setup                   :      0.000u      0.000s      0.010w     14 calls
| | bMatrix pseudoinverse           :      0.017u      0.000s      0.001w     14 calls
| | New vector                      :      0.000u      0.000s      0.001w     14 calls
HF: Form C                          :      0.000u      0.000s      0.004w     14 calls
Grad: V T Perturb                   :      0.083u      0.000s      0.052w      1 calls
Grad: S                             :      0.000u      0.000s      0.001w      1 calls
Grad: JK                            :      1.917u      0.000s      1.154w      1 calls
| JKGrad: Amn                       :      0.300u      0.000s      0.172w      1 calls
| JKGrad: Awmn                      :      0.000u      0.000s      0.000w      1 calls
| JKGrad: AB                        :      0.283u      0.000s      0.170w      1 calls
| JKGrad: UV                        :      0.000u      0.000s      0.000w      1 calls
| JKGrad: ABx                       :      0.117u      0.000s      0.077w      1 calls
| JKGrad: Amnx                      :      1.200u      0.000s      0.714w      1 calls
Grad: XC                            :      1.350u      0.000s      0.822w      1 calls
| Properties                        :      0.650u      0.000s      0.342w   2967 calls
| Functional                        :      0.333u      0.000s      0.186w   2967 calls
| V_xc gradient                     :      0.367u      0.000s      0.288w   2967 calls

**************************************************************************************

Host: aaojha

Timers On : Fri May 14 09:45:53 2021
Timers Off: Fri May 14 09:46:03 2021

Wall Time:       10.17 seconds

                                                       Time (seconds)
Module                                       User      System        Wall        Calls
V: Grid                             :      1.267u      0.017s      0.767w      1 calls
DFH: sparsity prep                  :      0.033u      0.000s      0.013w      1 calls
DFH: initialize()                   :      0.650u      0.000s      0.395w      1 calls
DFH: AO Construction                :      0.267u      0.000s      0.157w      1 calls
DFH: AO-Met. Contraction            :      0.067u      0.000s      0.046w      1 calls
HF: Form core H                     :      0.000u      0.017s      0.002w      1 calls
HF: Form S/X                        :      0.000u      0.000s      0.000w      1 calls
HF: Guess                           :      0.267u      0.000s      0.156w      1 calls
SAD Guess                           :      0.250u      0.000s      0.149w      1 calls
HF: Form G                          :      8.983u      0.083s      5.504w     15 calls
RV: Form V                          :      8.950u      0.083s      5.480w     15 calls
Properties                          :      2.517u      0.017s      1.639w  47568 calls
Functional                          :      4.450u      0.033s      2.877w  47568 calls
V_xc                                :      2.667u      0.033s      1.458w  44595 calls
JK: D                               :      0.000u      0.000s      0.000w     15 calls
JK: USO2AO                          :      0.000u      0.000s      0.000w     15 calls
JK: JK                              :      0.033u      0.000s      0.023w     15 calls
DFH: compute_JK()                   :      0.033u      0.000s      0.022w     15 calls
DFH: Grabbing AOs                   :      0.000u      0.000s      0.000w     15 calls
DFH: compute_J                      :      0.033u      0.000s      0.022w     15 calls
JK: AO2USO                          :      0.000u      0.000s      0.000w     15 calls
HF: Form F                          :      0.000u      0.000s      0.000w     15 calls
HF: Form D                          :      0.000u      0.000s      0.000w     15 calls
HF: DIIS                            :      0.000u      0.000s      0.006w     14 calls
DIISManager::add_entry              :      0.000u      0.000s      0.001w     14 calls
DIISManager::extrapolate            :      0.000u      0.000s      0.002w     14 calls
bMatrix setup                       :      0.000u      0.000s      0.001w     14 calls
bMatrix pseudoinverse               :      0.000u      0.000s      0.000w     14 calls
New vector                          :      0.000u      0.000s      0.000w     14 calls
HF: Form C                          :      0.017u      0.000s      0.003w     14 calls
Grad: V T Perturb                   :      0.100u      0.000s      0.057w      1 calls
Grad: S                             :      0.000u      0.000s      0.002w      1 calls
Grad: JK                            :      1.933u      0.000s      1.189w      1 calls
JKGrad: Amn                         :      0.317u      0.000s      0.194w      1 calls
JKGrad: Awmn                        :      0.000u      0.000s      0.000w      1 calls
JKGrad: AB                          :      0.283u      0.000s      0.174w      1 calls
JKGrad: UV                          :      0.000u      0.000s      0.000w      1 calls
JKGrad: ABx                         :      0.133u      0.000s      0.081w      1 calls
JKGrad: Amnx                        :      1.183u      0.000s      0.715w      1 calls
Grad: XC                            :      1.433u      0.000s      0.888w      1 calls
V_xc gradient                       :      0.583u      0.000s      0.324w   2973 calls

--------------------------------------------------------------------------------------
V: Grid                             :      1.267u      0.017s      0.767w      1 calls
DFH: sparsity prep                  :      0.033u      0.000s      0.013w      1 calls
DFH: initialize()                   :      0.650u      0.000s      0.395w      1 calls
| DFH: AO Construction              :      0.267u      0.000s      0.157w      1 calls
| DFH: AO-Met. Contraction          :      0.067u      0.000s      0.046w      1 calls
HF: Form core H                     :      0.000u      0.017s      0.002w      1 calls
HF: Form S/X                        :      0.000u      0.000s      0.000w      1 calls
HF: Guess                           :      0.267u      0.000s      0.156w      1 calls
| SAD Guess                         :      0.250u      0.000s      0.149w      1 calls
HF: Form G                          :      8.983u      0.083s      5.504w     15 calls
| RV: Form V                        :      8.950u      0.083s      5.480w     15 calls
| | Properties                      :      1.900u      0.017s      1.267w  44595 calls
| | Functional                      :      4.233u      0.033s      2.690w  44595 calls
| | V_xc                            :      2.667u      0.033s      1.458w  44595 calls
| JK: D                             :      0.000u      0.000s      0.000w     15 calls
| JK: USO2AO                        :      0.000u      0.000s      0.000w     15 calls
| JK: JK                            :      0.033u      0.000s      0.023w     15 calls
| | DFH: compute_JK()               :      0.033u      0.000s      0.022w     15 calls
| | | DFH: Grabbing AOs             :      0.000u      0.000s      0.000w     15 calls
| | | DFH: compute_J                :      0.033u      0.000s      0.022w     15 calls
| JK: AO2USO                        :      0.000u      0.000s      0.000w     15 calls
HF: Form F                          :      0.000u      0.000s      0.000w     15 calls
HF: Form D                          :      0.000u      0.000s      0.000w     15 calls
HF: DIIS                            :      0.000u      0.000s      0.006w     14 calls
| DIISManager::add_entry            :      0.000u      0.000s      0.001w     14 calls
| DIISManager::extrapolate          :      0.000u      0.000s      0.002w     14 calls
| | bMatrix setup                   :      0.000u      0.000s      0.001w     14 calls
| | bMatrix pseudoinverse           :      0.000u      0.000s      0.000w     14 calls
| | New vector                      :      0.000u      0.000s      0.000w     14 calls
HF: Form C                          :      0.017u      0.000s      0.003w     14 calls
Grad: V T Perturb                   :      0.100u      0.000s      0.057w      1 calls
Grad: S                             :      0.000u      0.000s      0.002w      1 calls
Grad: JK                            :      1.933u      0.000s      1.189w      1 calls
| JKGrad: Amn                       :      0.317u      0.000s      0.194w      1 calls
| JKGrad: Awmn                      :      0.000u      0.000s      0.000w      1 calls
| JKGrad: AB                        :      0.283u      0.000s      0.174w      1 calls
| JKGrad: UV                        :      0.000u      0.000s      0.000w      1 calls
| JKGrad: ABx                       :      0.133u      0.000s      0.081w      1 calls
| JKGrad: Amnx                      :      1.183u      0.000s      0.715w      1 calls
Grad: XC                            :      1.433u      0.000s      0.888w      1 calls
| Properties                        :      0.617u      0.000s      0.372w   2973 calls
| Functional                        :      0.217u      0.000s      0.187w   2973 calls
| V_xc gradient                     :      0.583u      0.000s      0.324w   2973 calls

**************************************************************************************

Host: aaojha

Timers On : Fri May 14 09:46:03 2021
Timers Off: Fri May 14 09:46:13 2021

Wall Time:       10.05 seconds

                                                       Time (seconds)
Module                                       User      System        Wall        Calls
V: Grid                             :      1.217u      0.017s      0.739w      1 calls
DFH: sparsity prep                  :      0.017u      0.000s      0.013w      1 calls
DFH: initialize()                   :      0.667u      0.017s      0.404w      1 calls
DFH: AO Construction                :      0.267u      0.000s      0.163w      1 calls
DFH: AO-Met. Contraction            :      0.083u      0.000s      0.048w      1 calls
HF: Form core H                     :      0.000u      0.000s      0.000w      1 calls
HF: Form S/X                        :      0.000u      0.000s      0.000w      1 calls
HF: Guess                           :      0.267u      0.000s      0.162w      1 calls
SAD Guess                           :      0.250u      0.000s      0.155w      1 calls
HF: Form G                          :      8.867u      0.117s      5.513w     15 calls
RV: Form V                          :      8.850u      0.117s      5.490w     15 calls
Properties                          :      2.800u      0.033s      1.631w  47552 calls
Functional                          :      4.417u      0.050s      2.873w  47552 calls
V_xc                                :      2.533u      0.050s      1.454w  44580 calls
JK: D                               :      0.000u      0.000s      0.000w     15 calls
JK: USO2AO                          :      0.000u      0.000s      0.000w     15 calls
JK: JK                              :      0.017u      0.000s      0.022w     15 calls
DFH: compute_JK()                   :      0.017u      0.000s      0.022w     15 calls
DFH: Grabbing AOs                   :      0.000u      0.000s      0.000w     15 calls
DFH: compute_J                      :      0.017u      0.000s      0.022w     15 calls
JK: AO2USO                          :      0.000u      0.000s      0.000w     15 calls
HF: Form F                          :      0.000u      0.000s      0.000w     15 calls
HF: Form D                          :      0.000u      0.000s      0.000w     15 calls
HF: DIIS                            :      0.033u      0.000s      0.007w     14 calls
[...]
JKGrad: AB                          :      0.300u      0.000s      0.173w      1 calls
JKGrad: UV                          :      0.000u      0.000s      0.000w      1 calls
JKGrad: ABx                         :      0.133u      0.000s      0.079w      1 calls
JKGrad: Amnx                        :      1.183u      0.000s      0.713w      1 calls
Grad: XC                            :      1.417u      0.000s      0.857w      1 calls
V_xc gradient                       :      0.517u      0.000s      0.308w   2965 calls

--------------------------------------------------------------------------------------
V: Grid                             :      1.250u      0.033s      0.767w      1 calls
DFH: sparsity prep                  :      0.017u      0.000s      0.013w      1 calls
DFH: initialize()                   :      0.617u      0.050s      0.394w      1 calls
| DFH: AO Construction              :      0.267u      0.000s      0.157w      1 calls
| DFH: AO-Met. Contraction          :      0.067u      0.017s      0.045w      1 calls
HF: Form core H                     :      0.000u      0.000s      0.002w      1 calls
HF: Form S/X                        :      0.000u      0.000s      0.000w      1 calls
HF: Guess                           :      0.267u      0.000s      0.159w      1 calls
| SAD Guess                         :      0.267u      0.000s      0.152w      1 calls
HF: Form G                          :      8.800u      0.167s      5.375w     15 calls
| RV: Form V                        :      8.750u      0.167s      5.353w     15 calls
| | Properties                      :      1.883u      0.017s      1.233w  44475 calls
| | Functional                      :      4.217u      0.100s      2.643w  44475 calls
| | V_xc                            :      2.467u      0.050s      1.412w  44475 calls
| JK: D                             :      0.000u      0.000s      0.000w     15 calls
| JK: USO2AO                        :      0.000u      0.000s      0.000w     15 calls
| JK: JK                            :      0.050u      0.000s      0.021w     15 calls
| | DFH: compute_JK()               :      0.050u      0.000s      0.021w     15 calls
| | | DFH: Grabbing AOs             :      0.000u      0.000s      0.000w     15 calls
| | | DFH: compute_J                :      0.050u      0.000s      0.021w     15 calls
| JK: AO2USO                        :      0.000u      0.000s      0.000w     15 calls
HF: Form F                          :      0.000u      0.000s      0.000w     15 calls
HF: Form D                          :      0.000u      0.000s      0.000w     15 calls
HF: DIIS                            :      0.000u      0.000s      0.006w     14 calls
| DIISManager::add_entry            :      0.000u      0.000s      0.001w     14 calls
| DIISManager::extrapolate          :      0.000u      0.000s      0.002w     14 calls
| | bMatrix setup                   :      0.000u      0.000s      0.001w     14 calls
| | bMatrix pseudoinverse           :      0.000u      0.000s      0.001w     14 calls
| | New vector                      :      0.000u      0.000s      0.000w     14 calls
HF: Form C                          :      0.000u      0.000s      0.003w     14 calls
Grad: V T Perturb                   :      0.083u      0.000s      0.053w      1 calls
Grad: S                             :      0.000u      0.000s      0.001w      1 calls
Grad: JK                            :      1.933u      0.000s      1.167w      1 calls
| JKGrad: Amn                       :      0.283u      0.000s      0.179w      1 calls
| JKGrad: Awmn                      :      0.000u      0.000s      0.000w      1 calls
| JKGrad: AB                        :      0.300u      0.000s      0.173w      1 calls
| JKGrad: UV                        :      0.000u      0.000s      0.000w      1 calls
| JKGrad: ABx                       :      0.133u      0.000s      0.079w      1 calls
| JKGrad: Amnx                      :      1.183u      0.000s      0.713w      1 calls
Grad: XC                            :      1.417u      0.000s      0.857w      1 calls
| Properties                        :      0.633u      0.000s      0.364w   2965 calls
| Functional                        :      0.267u      0.000s      0.180w   2965 calls
| V_xc gradient                     :      0.517u      0.000s      0.308w   2965 calls

**************************************************************************************

Host: aaojha

Timers On : Fri May 14 09:46:54 2021
Timers Off: Fri May 14 09:47:04 2021

Wall Time:       10.15 seconds

                                                       Time (seconds)
Module                                       User      System        Wall        Calls
V: Grid                             :      1.267u      0.017s      0.764w      1 calls
DFH: sparsity prep                  :      0.017u      0.000s      0.013w      1 calls
DFH: initialize()                   :      0.650u      0.033s      0.407w      1 calls
DFH: AO Construction                :      0.267u      0.000s      0.164w      1 calls
DFH: AO-Met. Contraction            :      0.083u      0.000s      0.047w      1 calls
HF: Form core H                     :      0.000u      0.000s      0.002w      1 calls
HF: Form S/X                        :      0.017u      0.000s      0.000w      1 calls
HF: Guess                           :      0.267u      0.000s      0.161w      1 calls
SAD Guess                           :      0.267u      0.000s      0.154w      1 calls
HF: Form G                          :      9.117u      0.150s      5.568w     15 calls
RV: Form V                          :      9.083u      0.150s      5.545w     15 calls
Properties                          :      3.200u      0.033s      1.657w  47392 calls
Functional                          :      4.517u      0.067s      2.894w  47392 calls
V_xc                                :      2.267u      0.067s      1.470w  44430 calls
JK: D                               :      0.000u      0.000s      0.000w     15 calls
JK: USO2AO                          :      0.000u      0.000s      0.000w     15 calls
JK: JK                              :      0.033u      0.000s      0.023w     15 calls
DFH: compute_JK()                   :      0.033u      0.000s      0.023w     15 calls
DFH: Grabbing AOs                   :      0.000u      0.000s      0.000w     15 calls
DFH: compute_J                      :      0.033u      0.000s      0.022w     15 calls
JK: AO2USO                          :      0.000u      0.000s      0.000w     15 calls
HF: Form F                          :      0.000u      0.000s      0.000w     15 calls
HF: Form D                          :      0.000u      0.000s      0.000w     15 calls
HF: DIIS                            :      0.000u      0.000s      0.007w     14 calls
DIISManager::add_entry              :      0.000u      0.000s      0.001w     14 calls
DIISManager::extrapolate            :      0.000u      0.000s      0.002w     14 calls
bMatrix setup                       :      0.000u      0.000s      0.001w     14 calls
bMatrix pseudoinverse               :      0.000u      0.000s      0.001w     14 calls
New vector                          :      0.000u      0.000s      0.001w     14 calls
HF: Form C                          :      0.000u      0.000s      0.003w     14 calls
Grad: V T Perturb                   :      0.100u      0.000s      0.053w      1 calls
Grad: S                             :      0.000u      0.000s      0.001w      1 calls
Grad: JK                            :      1.900u      0.000s      1.155w      1 calls
JKGrad: Amn                         :      0.283u      0.000s      0.175w      1 calls
JKGrad: Awmn                        :      0.000u      0.000s      0.000w      1 calls
JKGrad: AB                          :      0.283u      0.000s      0.172w      1 calls
JKGrad: UV                          :      0.000u      0.000s      0.000w      1 calls
JKGrad: ABx                         :      0.133u      0.000s      0.078w      1 calls
JKGrad: Amnx                        :      1.183u      0.000s      0.707w      1 calls
Grad: XC                            :      1.417u      0.017s      0.865w      1 calls
V_xc gradient                       :      0.400u      0.000s      0.315w   2962 calls

--------------------------------------------------------------------------------------
V: Grid                             :      1.267u      0.017s      0.764w      1 calls
DFH: sparsity prep                  :      0.017u      0.000s      0.013w      1 calls
DFH: initialize()                   :      0.650u      0.033s      0.407w      1 calls
| DFH: AO Construction              :      0.267u      0.000s      0.164w      1 calls
| DFH: AO-Met. Contraction          :      0.083u      0.000s      0.047w      1 calls
HF: Form core H                     :      0.000u      0.000s      0.002w      1 calls
HF: Form S/X                        :      0.017u      0.000s      0.000w      1 calls
HF: Guess                           :      0.267u      0.000s      0.161w      1 calls
| SAD Guess                         :      0.267u      0.000s      0.154w      1 calls
HF: Form G                          :      9.117u      0.150s      5.568w     15 calls
| RV: Form V                        :      9.083u      0.150s      5.545w     15 calls
| | Properties                      :      2.433u      0.033s      1.293w  44430 calls
| | Functional                      :      4.283u      0.050s      2.713w  44430 calls
| | V_xc                            :      2.267u      0.067s      1.470w  44430 calls
| JK: D                             :      0.000u      0.000s      0.000w     15 calls
| JK: USO2AO                        :      0.000u      0.000s      0.000w     15 calls
| JK: JK                            :      0.033u      0.000s      0.023w     15 calls
| | DFH: compute_JK()               :      0.033u      0.000s      0.023w     15 calls
| | | DFH: Grabbing AOs             :      0.000u      0.000s      0.000w     15 calls
| | | DFH: compute_J                :      0.033u      0.000s      0.022w     15 calls
| JK: AO2USO                        :      0.000u      0.000s      0.000w     15 calls
HF: Form F                          :      0.000u      0.000s      0.000w     15 calls
HF: Form D                          :      0.000u      0.000s      0.000w     15 calls
HF: DIIS                            :      0.000u      0.000s      0.007w     14 calls
| DIISManager::add_entry            :      0.000u      0.000s      0.001w     14 calls
| DIISManager::extrapolate          :      0.000u      0.000s      0.002w     14 calls
| | bMatrix setup                   :      0.000u      0.000s      0.001w     14 calls
| | bMatrix pseudoinverse           :      0.000u      0.000s      0.001w     14 calls
| | New vector                      :      0.000u      0.000s      0.001w     14 calls
HF: Form C                          :      0.000u      0.000s      0.003w     14 calls
Grad: V T Perturb                   :      0.100u      0.000s      0.053w      1 calls
Grad: S                             :      0.000u      0.000s      0.001w      1 calls
Grad: JK                            :      1.900u      0.000s      1.155w      1 calls
| JKGrad: Amn                       :      0.283u      0.000s      0.175w      1 calls
| JKGrad: Awmn                      :      0.000u      0.000s      0.000w      1 calls
| JKGrad: AB                        :      0.283u      0.000s      0.172w      1 calls
| JKGrad: UV                        :      0.000u      0.000s      0.000w      1 calls
| JKGrad: ABx                       :      0.133u      0.000s      0.078w      1 calls
| JKGrad: Amnx                      :      1.183u      0.000s      0.707w      1 calls
Grad: XC                            :      1.417u      0.017s      0.865w      1 calls
| Properties                        :      0.767u      0.000s      0.364w   2962 calls
| Functional                        :      0.233u      0.017s      0.181w   2962 calls
| V_xc gradient                     :      0.400u      0.000s      0.315w   2962 calls

**************************************************************************************

Host: aaojha

Timers On : Fri May 14 09:47:04 2021
Timers Off: Fri May 14 09:47:15 2021

Wall Time:       10.19 seconds

                                                       Time (seconds)
Module                                       User      System        Wall        Calls
V: Grid                             :      1.267u      0.017s      0.768w      1 calls
DFH: sparsity prep                  :      0.017u      0.000s      0.013w      1 calls
DFH: initialize()                   :      0.650u      0.017s      0.407w      1 calls
DFH: AO Construction                :      0.283u      0.000s      0.165w      1 calls
DFH: AO-Met. Contraction            :      0.050u      0.017s      0.048w      1 calls
HF: Form core H                     :      0.000u      0.000s      0.002w      1 calls
HF: Form S/X                        :      0.000u      0.000s      0.000w      1 calls
HF: Guess                           :      0.267u      0.000s      0.163w      1 calls
SAD Guess                           :      0.250u      0.000s      0.156w      1 calls
HF: Form G                          :      9.083u      0.200s      5.569w     15 calls
RV: Form V                          :      9.033u      0.200s      5.545w     15 calls
Properties                          :      2.617u      0.067s      1.656w  47376 calls
Functional                          :      4.450u      0.083s      2.884w  47376 calls
V_xc                                :      2.650u      0.050s      1.484w  44415 calls
JK: D                               :      0.000u      0.000s      0.000w     15 calls
JK: USO2AO                          :      0.000u      0.000s      0.000w     15 calls
JK: JK                              :      0.050u      0.000s      0.023w     15 calls
DFH: compute_JK()                   :      0.050u      0.000s      0.023w     15 calls
DFH: Grabbing AOs                   :      0.000u      0.000s      0.000w     15 calls
DFH: compute_J                      :      0.050u      0.000s      0.023w     15 calls
JK: AO2USO                          :      0.000u      0.000s      0.000w     15 calls
HF: Form F                          :      0.000u      0.000s      0.000w     15 calls
HF: Form D                          :      0.000u      0.000s      0.000w     15 calls
HF: DIIS                            :      0.000u      0.000s      0.007w     14 calls
DIISManager::add_entry              :      0.000u      0.000s      0.001w     14 calls
DIISManager::extrapolate            :      0.000u      0.000s      0.002w     14 calls
bMatrix setup                       :      0.000u      0.000s      0.001w     14 calls
bMatrix pseudoinverse               :      0.000u      0.000s      0.000w     14 calls
New vector                          :      0.000u      0.000s      0.000w     14 calls
HF: Form C                          :      0.000u      0.000s      0.003w     14 calls
Grad: V T Perturb                   :      0.083u      0.000s      0.053w      1 calls
Grad: S                             :      0.000u      0.000s      0.001w      1 calls
Grad: JK                            :      1.917u      0.000s      1.159w      1 calls
JKGrad: Amn                         :      0.300u      0.000s      0.181w      1 calls
JKGrad: Awmn                        :      0.000u      0.000s      0.000w      1 calls
JKGrad: AB                          :      0.283u      0.000s      0.174w      1 calls
JKGrad: UV                          :      0.000u      0.000s      0.000w      1 calls
JKGrad: ABx                         :      0.133u      0.000s      0.076w      1 calls
JKGrad: Amnx                        :      1.167u      0.000s      0.704w      1 calls
Grad: XC                            :      1.417u      0.000s      0.855w      1 calls
V_xc gradient                       :      0.633u      0.000s      0.307w   2961 calls

--------------------------------------------------------------------------------------
V: Grid                             :      1.267u      0.017s      0.768w      1 calls
DFH: sparsity prep                  :      0.017u      0.000s      0.013w      1 calls
DFH: initialize()                   :      0.650u      0.017s      0.407w      1 calls
| DFH: AO Construction              :      0.283u      0.000s      0.165w      1 calls
| DFH: AO-Met. Contraction          :      0.050u      0.017s      0.048w      1 calls
HF: Form core H                     :      0.000u      0.000s      0.002w      1 calls
HF: Form S/X                        :      0.000u      0.000s      0.000w      1 calls
HF: Guess                           :      0.267u      0.000s      0.163w      1 calls
| SAD Guess                         :      0.250u      0.000s      0.156w      1 calls
HF: Form G                          :      9.083u      0.200s      5.569w     15 calls
| RV: Form V                        :      9.033u      0.200s      5.545w     15 calls
| | Properties                      :      2.133u      0.067s      1.294w  44415 calls
| | Functional                      :      4.167u      0.083s      2.703w  44415 calls
| | V_xc                            :      2.650u      0.050s      1.484w  44415 calls
| JK: D                             :      0.000u      0.000s      0.000w     15 calls
| JK: USO2AO                        :      0.000u      0.000s      0.000w     15 calls
| JK: JK                            :      0.050u      0.000s      0.023w     15 calls
| | DFH: compute_JK()               :      0.050u      0.000s      0.023w     15 calls
| | | DFH: Grabbing AOs             :      0.000u      0.000s      0.000w     15 calls
| | | DFH: compute_J                :      0.050u      0.000s      0.023w     15 calls
| JK: AO2USO                        :      0.000u      0.000s      0.000w     15 calls
HF: Form F                          :      0.000u      0.000s      0.000w     15 calls
HF: Form D                          :      0.000u      0.000s      0.000w     15 calls
HF: DIIS                            :      0.000u      0.000s      0.007w     14 calls
| DIISManager::add_entry            :      0.000u      0.000s      0.001w     14 calls
| DIISManager::extrapolate          :      0.000u      0.000s      0.002w     14 calls
| | bMatrix setup                   :      0.000u      0.000s      0.001w     14 calls
| | bMatrix pseudoinverse           :      0.000u      0.000s      0.000w     14 calls
| | New vector                      :      0.000u      0.000s      0.000w     14 calls
HF: Form C                          :      0.000u      0.000s      0.003w     14 calls
Grad: V T Perturb                   :      0.083u      0.000s      0.053w      1 calls
Grad: S                             :      0.000u      0.000s      0.001w      1 calls
Grad: JK                            :      1.917u      0.000s      1.159w      1 calls
| JKGrad: Amn                       :      0.300u      0.000s      0.181w      1 calls
| JKGrad: Awmn                      :      0.000u      0.000s      0.000w      1 calls
| JKGrad: AB                        :      0.283u      0.000s      0.174w      1 calls
| JKGrad: UV                        :      0.000u      0.000s      0.000w      1 calls
| JKGrad: ABx                       :      0.133u      0.000s      0.076w      1 calls
| JKGrad: Amnx                      :      1.167u      0.000s      0.704w      1 calls
Grad: XC                            :      1.417u      0.000s      0.855w      1 calls
| Properties                        :      0.483u      0.000s      0.362w   2961 calls
| Functional                        :      0.283u      0.000s      0.181w   2961 calls
| V_xc gradient                     :      0.633u      0.000s      0.307w   2961 calls

**************************************************************************************
