18   
Iteration 0 Energy -376.54115441
C        0.1520754000    0.0354375000    0.0309364000
C       -0.5660611000   -0.7548244000    0.9902676000
C       -1.9838780000   -0.7720419000    0.9546413000
C       -2.6876167000   -0.0062556000   -0.0212417000
C       -1.9727072000    0.7739697000   -0.9776530000
C       -0.5547086000    0.7878145000   -0.9665047000
C        1.6618212000    0.0117849000    0.0244678000
N        2.3525513000   -0.1036823000   -1.1659371000
N        2.3637427000    0.0420216000    1.2134673000
H       -0.0202987000   -1.3693402000    1.7325455000
H       -2.5426820000   -1.3893333000    1.6848073000
H       -3.7958442000   -0.0202479000   -0.0388757000
H       -2.5224314000    1.3710029000   -1.7311980000
H       -0.0002749000    1.4084559000   -1.6972718000
H        3.4034572000   -0.0628351000   -1.2216703000
H        1.8175285000   -0.1889650000   -2.0668359000
H        3.4119626000   -0.0466159000    1.2606778000
H        1.8448883000    0.1891234000    2.1157564000
18   
Iteration 1 Energy -376.54029910
C        0.1531755784    0.0625798258    0.0440343792
C       -0.5653249151   -0.7648232271    0.9715997631
C       -1.9827151023   -0.7987003799    0.9327673554
C       -2.6855355935   -0.0130166874   -0.0275863979
C       -1.9724418898    0.7957980070   -0.9614682454
C       -0.5547293276    0.8249567754   -0.9448686810
C        1.6627881947    0.0338679185    0.0314694987
N        2.3396292338   -0.1569733676   -1.1572355991
N        2.3722721503    0.0894556814    1.2152549744
H       -0.0166797055   -1.3963689782    1.6971661970
H       -2.5384125508   -1.4420290089    1.6426473898
H       -3.7934249560   -0.0365425958   -0.0529362559
H       -2.5245986652    1.4033200219   -1.7047566600
H       -0.0030708963    1.4644995753   -1.6613366557
H        3.3903982777   -0.1419058702   -1.2262582880
H        1.7934449851   -0.2789415169   -2.0471314738
H        3.4189791429   -0.0172629513    1.2584372623
H        1.8626353613    0.2783190325    2.1150177064
18   
Iteration 2 Energy -376.53969301
C        0.1493376847    0.0674782320    0.0544504758
C       -0.5586401966   -0.7850024386    0.9660884404
C       -1.9758219552   -0.8131450241    0.9094227556
C       -2.6862919459   -0.0135128382   -0.0338161599
C       -1.9750856023    0.8166976271   -0.9496166418
C       -0.5574016073    0.8455148540   -0.9228324041
C        1.6599632540    0.0342876658    0.0324222591
N        2.3320133084   -0.2000987118   -1.1510063854
N        2.3739182815    0.1256068231    1.2108196521
H       -0.0101633650   -1.4270849121    1.6828090630
H       -2.5331230874   -1.4723984036    1.6029897417
H       -3.7940173283   -0.0428484648   -0.0605916713
H       -2.5255804703    1.4364837316   -1.6839755751
H       -0.0022842406    1.4975617276   -1.6252299410
H        3.3828456599   -0.1922818143   -1.2249970543
H        1.7810442108   -0.3418388790   -2.0353140523
H        3.4209099746    0.0202126128    1.2567198990
H        1.8668887743    0.3520157917    2.1037109892
18   
Iteration 3 Energy -376.53874347
C        0.1488098639    0.0817900614    0.0609845267
C       -0.5622862090   -0.8014024501    0.9399018811
C       -1.9796788610   -0.8440428644    0.8865860386
C       -2.6859775454   -0.0183328287   -0.0361222756
C       -1.9761349879    0.8418060403   -0.9249227165
C       -0.5583173594    0.8804391357   -0.8979489547
C        1.6616247394    0.0385425475    0.0323124898
N        2.3282567638   -0.2646787133   -1.1380351374
N        2.3794312856    0.1784184713    1.2029285118
H       -0.0095271679   -1.4568806958    1.6407861598
H       -2.5334411140   -1.5278313701    1.5591307359
H       -3.7933079196   -0.0514273595   -0.0686744376
H       -2.5292951675    1.4778102841   -1.6432023442
H       -0.0045515650    1.5520835115   -1.5827220260
H        3.3794318050   -0.2704601688   -1.2129824881
H        1.7735670783   -0.4342921386   -2.0155315379
H        3.4263155567    0.0702922469    1.2525305484
H        1.8759706245    0.4571085963    2.0833917265
18   
Iteration 4 Energy -376.53878260
C        0.1481845596    0.0717049817    0.0566549904
C       -0.5625297788   -0.8117496652    0.9347777214
C       -1.9802938643   -0.8490951618    0.8821724306
C       -2.6836462793   -0.0172438354   -0.0372156591
C       -1.9715992342    0.8462483260   -0.9210775195
C       -0.5535019231    0.8810172690   -0.8963744781
C        1.6628984952    0.0310107084    0.0365166475
N        2.3221133715   -0.2754318947   -1.1367622528
N        2.3791569935    0.1895946419    1.2058035247
H       -0.0106328241   -1.4674553773    1.6360716842
H       -2.5360668576   -1.5327486115    1.5531826781
H       -3.7910538154   -0.0465219770   -0.0695853114
H       -2.5236142509    1.4885616953   -1.6345897088
H        0.0027642646    1.5544622404   -1.5772575359
H        3.3726752174   -0.2759276410   -1.2209979093
H        1.7613035624   -0.4442008828   -2.0107102502
H        3.4275019093    0.0937003627    1.2529066985
H        1.8742136913    0.4719718821    2.0843618773
18   
Iteration 5 Energy -376.53880119
C        0.1486320781    0.0601163468    0.0491356051
C       -0.5637981259   -0.8204883731    0.9277048795
C       -1.9822157008   -0.8503784296    0.8799438035
C       -2.6875790860   -0.0132247964   -0.0330565492
C       -1.9752951486    0.8514461776   -0.9152972459
C       -0.5566741284    0.8773659314   -0.8934812520
C        1.6655399812    0.0232310950    0.0315700349
N        2.3342343816   -0.2846917674   -1.1354073121
N        2.3754241442    0.1990128109    1.2014215566
H       -0.0130626138   -1.4788495177    1.6272891625
H       -2.5379902071   -1.5332245115    1.5517400014
H       -3.7952008908   -0.0379603972   -0.0606967679
H       -2.5261949551    1.5007537986   -1.6233739529
H       -0.0006082244    1.5513268111   -1.5737836265
H        3.3850567020   -0.2760522596   -1.2181031573
H        1.7778002288   -0.4577911827   -2.0113542782
H        3.4247723546    0.1173432622    1.2550659092
H        1.8621221667    0.4779988912    2.0762172672
18   
Iteration 6 Energy -376.53880637
C        0.1468541493    0.0589891319    0.0458590282
C       -0.5627736463   -0.8213733038    0.9272320750
C       -1.9811070625   -0.8502436784    0.8820721572
C       -2.6862909513   -0.0119849414   -0.0299694774
C       -1.9745592959    0.8512472488   -0.9139746516
C       -0.5559766436    0.8782303174   -0.8969628907
C        1.6632676446    0.0240052171    0.0280294350
N        2.3360646515   -0.2851356737   -1.1361800777
N        2.3709253683    0.1998166114    1.1989613081
H       -0.0109407361   -1.4811222520    1.6247327182
H       -2.5365624206   -1.5325180295    1.5547005281
H       -3.7939932767   -0.0351835659   -0.0558194595
H       -2.5267833131    1.5006534893   -1.6208706076
H       -0.0006676600    1.5512418878   -1.5789877171
H        3.3874704986   -0.2729621311   -1.2105845983
H        1.7849620445   -0.4607403724   -2.0150183033
H        3.4200396502    0.1177165381    1.2556255460
H        1.8548864438    0.4736125709    2.0737735065
18   
Iteration 7 Energy -376.53880958
C        0.1482347472    0.0602071721    0.0475295796
C       -0.5627841444   -0.8198142593    0.9282230972
C       -1.9810143725   -0.8495496464    0.8819262352
C       -2.6856373298   -0.0119894093   -0.0312635311
C       -1.9744204104    0.8504785614   -0.9163309106
C       -0.5558265035    0.8769958398   -0.8967403547
C        1.6640822850    0.0265065252    0.0301106455
N        2.3328061052   -0.2829059236   -1.1365684774
N        2.3735301934    0.1993723659    1.2007561011
H       -0.0116097058   -1.4804567461    1.6254008136
H       -2.5367985667   -1.5318464198    1.5542789662
H       -3.7933071927   -0.0358182530   -0.0577510310
H       -2.5260673375    1.4986572759   -1.6248309334
H       -0.0002917924    1.5489242594   -1.5796277318
H        3.3838999008   -0.2722389987   -1.2144458506
H        1.7789139765   -0.4575494358   -2.0138119261
H        3.4223757067    0.1131145108    1.2553623207
H        1.8593817320    0.4706264416    2.0774625801
18   
Iteration 8 Energy -376.53881002
C        0.1485175153    0.0598057509    0.0473801159
C       -0.5631475835   -0.8199719613    0.9277292032
C       -1.9814196435   -0.8495309839    0.8812777265
C       -2.6868890384   -0.0120177301   -0.0313135003
C       -1.9740157361    0.8500111671   -0.9154993380
C       -0.5553655027    0.8770210941   -0.8965875743
C        1.6644504001    0.0257547004    0.0301251286
N        2.3336024872   -0.2836553079   -1.1363955097
N        2.3737718167    0.2003244451    1.2006258501
H       -0.0122015626   -1.4809025949    1.6248073050
H       -2.5370133359   -1.5319878597    1.5536107792
H       -3.7945822564   -0.0355274562   -0.0579078729
H       -2.5253255967    1.4984965381   -1.6239512990
H        0.0001027007    1.5490262064   -1.5794483322
H        3.3844700679   -0.2734109716   -1.2176017138
H        1.7784147845   -0.4571075310   -2.0130352869
H        3.4225338339    0.1131111073    1.2556775841
H        1.8593319438    0.4715265867    2.0771822542
