18   
Iteration 0 Energy -376.54215891
C        0.1507853000    0.0000382000    0.0112427000
C       -0.5762909000   -0.7003065000    1.0342755000
C       -1.9936587000   -0.6983541000    1.0139738000
C       -2.6948238000    0.0035499000   -0.0110379000
C       -1.9759163000    0.7028697000   -1.0255402000
C       -0.5584432000    0.6999387000   -1.0245084000
C        1.6576763000   -0.0086300000    0.0188127000
N        2.3681168000    0.0797833000   -1.1638087000
N        2.3550762000   -0.1128689000    1.2079380000
H       -0.0395336000   -1.2746573000    1.8142167000
H       -2.5545362000   -1.2497353000    1.7936294000
H       -3.8033817000    0.0052501000   -0.0195291000
H       -2.5231855000    1.2551165000   -1.8141990000
H       -0.0080546000    1.2719896000   -1.7966370000
H        3.4195272000    0.1171174000   -1.1910575000
H        1.8578176000    0.0520615000   -2.0815551000
H        3.4055255000   -0.1652817000    1.2454947000
H        1.8368946000   -0.0742216000    2.1208702000
18   
Iteration 1 Energy -376.54190204
C        0.1509139124    0.0268504479    0.0243016783
C       -0.5743902117   -0.7133476460    1.0201619971
C       -1.9916026907   -0.7247318340    0.9933952040
C       -2.6938741379   -0.0024002642   -0.0165627362
C       -1.9776832301    0.7273313530   -1.0113636799
C       -0.5602650789    0.7374310302   -1.0028189165
C        1.6577582394    0.0131043719    0.0252726134
N        2.3609589280    0.0255897144   -1.1649020638
N        2.3604949340   -0.0648790081    1.2132816597
H       -0.0356183828   -1.3064310157    1.7845269372
H       -2.5508500619   -1.3031381709    1.7544349996
H       -3.8023268599   -0.0112791939   -0.0306933478
H       -2.5265132470    1.2911594780   -1.7907065699
H       -0.0115745793    1.3288271057   -1.7614442230
H        3.4126585361    0.0409413477   -1.2008774072
H        1.8434275897   -0.0400818210   -2.0766581037
H        3.4100112205   -0.1360765050    1.2457659403
H        1.8493119452    0.0146080991    2.1275318923
18   
Iteration 2 Energy -376.54165432
C        0.1485920199    0.0344924938    0.0320499975
C       -0.5700402318   -0.7308968276    1.0124606886
C       -1.9873059689   -0.7456530095    0.9747082283
C       -2.6904763562   -0.0056990568   -0.0217411133
C       -1.9719330974    0.7468926277   -0.9977234466
C       -0.5543830835    0.7634064246   -0.9867052516
C        1.6550833605    0.0128313672    0.0288101822
N        2.3472628115   -0.0206124947   -1.1671568942
N        2.3604114032   -0.0277353199    1.2168178413
H       -0.0281802535   -1.3329825979    1.7677687182
H       -2.5478508663   -1.3425976518    1.7202335470
H       -3.7988198379   -0.0188540942   -0.0402686730
H       -2.5205272905    1.3234420439   -1.7677799488
H       -0.0008355115    1.3689540160   -1.7308262595
H        3.3986577720   -0.0094406988   -1.2188598803
H        1.8167844907   -0.1022455574   -2.0705891306
H        3.4096816539   -0.1037407013    1.2547953506
H        1.8492119586    0.0937906359    2.1269426765
18   
Iteration 3 Energy -376.54110073
C        0.1506611695    0.0493190346    0.0400271512
C       -0.5720642226   -0.7477562560    0.9905943068
C       -1.9896818250   -0.7759829347    0.9534683080
C       -2.6894216327   -0.0101277869   -0.0253225305
C       -1.9763869870    0.7755422470   -0.9790232887
C       -0.5585543124    0.7962001355   -0.9600306576
C        1.6586884960    0.0188950751    0.0293180238
N        2.3458633827   -0.0857054268   -1.1647908820
N        2.3650367646    0.0247672463    1.2166467778
H       -0.0258684211   -1.3636570888    1.7312504619
H       -2.5481227546   -1.3989305860    1.6792342286
H       -3.7974396769   -0.0296375715   -0.0483126719
H       -2.5263268272    1.3692973695   -1.7350672235
H       -0.0040019959    1.4216597656   -1.6865642976
H        3.3974097841   -0.0834175982   -1.2206785149
H        1.8092083160   -0.1952863467   -2.0619807187
H        3.4138757979   -0.0597965242    1.2560501469
H        1.8560135634    0.1980385542    2.1200387960
18   
Iteration 4 Energy -376.54113604
C        0.1491165139    0.0426411457    0.0362013605
C       -0.5703134668   -0.7543150678    0.9892376143
C       -1.9880284637   -0.7751816601    0.9501039621
C       -2.6928686733   -0.0083334951   -0.0240757557
C       -1.9759176956    0.7770416218   -0.9748498362
C       -0.5580447244    0.7953654871   -0.9610043577
C        1.6584820243    0.0145796358    0.0279377982
N        2.3473818955   -0.0921232623   -1.1643309264
N        2.3618775991    0.0297077463    1.2167409535
H       -0.0244738440   -1.3700126714    1.7304520751
H       -2.5465204169   -1.3971908266    1.6764796312
H       -3.8010335629   -0.0255156572   -0.0448335301
H       -2.5253288949    1.3750187701   -1.7278508198
H       -0.0034036435    1.4209482732   -1.6873619702
H        3.3991263652   -0.0806867549   -1.2160946481
H        1.8129902536   -0.2006286150   -2.0630490167
H        3.4112846811   -0.0483842585    1.2564583083
H        1.8500726450    0.2010353552    2.1188883966
18   
Iteration 5 Energy -376.54113349
C        0.1464379400    0.0372422255    0.0329316133
C       -0.5695863675   -0.7598226496    0.9884910262
C       -1.9872118347   -0.7782536540    0.9519667388
C       -2.6861561338   -0.0068260043   -0.0227755153
C       -1.9722212339    0.7800414207   -0.9746560157
C       -0.5544873298    0.7958490818   -0.9640078618
C        1.6564855339    0.0116125062    0.0289021519
N        2.3434777954   -0.0977390378   -1.1638585929
N        2.3581359729    0.0346015675    1.2186434850
H       -0.0225727389   -1.3751235712    1.7291961181
H       -2.5475107981   -1.3990133281    1.6780748515
H       -3.7942935949   -0.0210991105   -0.0427770996
H       -2.5227522058    1.3804408956   -1.7249220129
H        0.0020438847    1.4199958101   -1.6902200505
H        3.3947095536   -0.0782136866   -1.2238344685
H        1.8047925439   -0.2020952681   -2.0605171901
H        3.4076168949   -0.0386694810    1.2663921535
H        1.8407317557    0.2020264833    2.1182496121
18   
Iteration 6 Energy -376.54115087
C        0.1485426498    0.0373640181    0.0339452931
C       -0.5709220291   -0.7579866660    0.9880304450
C       -1.9887410615   -0.7763330819    0.9510372414
C       -2.6906902875   -0.0062486319   -0.0226560357
C       -1.9742457954    0.7787166596   -0.9741362018
C       -0.5562651843    0.7936596379   -0.9616983602
C        1.6584589415    0.0120219220    0.0289800433
N        2.3463762502   -0.0972690268   -1.1634685203
N        2.3602350310    0.0343616289    1.2185608337
H       -0.0254051090   -1.3744944478    1.7287743279
H       -2.5482852882   -1.3973475871    1.6774880653
H       -3.7988661966   -0.0205600190   -0.0425049468
H       -2.5233594475    1.3787457338   -1.7257306991
H       -0.0004982900    1.4171741736   -1.6889928645
H        3.3975903159   -0.0765949539   -1.2234320136
H        1.8081985142   -0.1995755672   -2.0606687856
H        3.4096305414   -0.0400955057    1.2655525169
H        1.8431453049    0.1999087766    2.1187332650
18   
Iteration 7 Energy -376.54115276
C        0.1477791042    0.0371838999    0.0335794721
C       -0.5717317677   -0.7571206619    0.9885051450
C       -1.9895572329   -0.7756289428    0.9525378201
C       -2.6913081797   -0.0057015625   -0.0214596354
C       -1.9754090991    0.7782749128   -0.9741373029
C       -0.5573847792    0.7930448608   -0.9621589509
C        1.6575401868    0.0120026613    0.0278936503
N        2.3481828476   -0.0982293603   -1.1629304242
N        2.3580754903    0.0345392309    1.2179695793
H       -0.0261251479   -1.3740274649    1.7288588994
H       -2.5489162577   -1.3961973572    1.6795262199
H       -3.7994973779   -0.0196036585   -0.0407422370
H       -2.5247439118    1.3777957890   -1.7259803029
H       -0.0020124969    1.4159663453   -1.6902704544
H        3.3997565423   -0.0738692017   -1.2147046780
H        1.8147005583   -0.1975737621   -2.0633031454
H        3.4074941413   -0.0416841769    1.2606938560
H        1.8421490579    0.1972527958    2.1193834715
18   
Iteration 8 Energy -376.54115638
C        0.1476899956    0.0361614000    0.0334219634
C       -0.5719848084   -0.7575521328    0.9887193942
C       -1.9898030224   -0.7751570498    0.9526496308
C       -2.6914976028   -0.0051835337   -0.0213527013
C       -1.9753854130    0.7783305869   -0.9741959757
C       -0.5573537461    0.7922762860   -0.9622754905
C        1.6575999363    0.0116454346    0.0285165106
N        2.3479458960   -0.0994253146   -1.1623483646
N        2.3580889864    0.0354503991    1.2186531623
H       -0.0266971937   -1.3745694438    1.7292214587
H       -2.5494023515   -1.3952227685    1.6798739612
H       -3.7996967825   -0.0186190713   -0.0404343878
H       -2.5244668687    1.3781247398   -1.7260065739
H       -0.0018527089    1.4147471441   -1.6906509761
H        3.3992805742   -0.0719087740   -1.2173530459
H        1.8129661662   -0.1960748822   -2.0620924834
H        3.4073355821   -0.0412904624    1.2647853507
H        1.8402865652    0.1956804000    2.1193734292
18   
Iteration 9 Energy -376.54115732
C        0.1473727929    0.0358382743    0.0337917964
C       -0.5731036818   -0.7569570370    0.9892830176
C       -1.9909183590   -0.7745033268    0.9533264464
C       -2.6920561220   -0.0048843728   -0.0213426129
C       -1.9750646376    0.7777237918   -0.9742812389
C       -0.5570287397    0.7916810593   -0.9625568789
C        1.6572847623    0.0114802980    0.0299903745
N        2.3470144108   -0.1007330588   -1.1611574570
N        2.3576835938    0.0361616712    1.2202139539
H       -0.0281719818   -1.3738148758    1.7301729765
H       -2.5507529016   -1.3939673793    1.6808878196
H       -3.8002566574   -0.0178980886   -0.0408079103
H       -2.5238263204    1.3772557095   -1.7265251820
H       -0.0013746386    1.4136965749   -1.6912150170
H        3.3980971062   -0.0691673129   -1.2187558962
H        1.8107260393   -0.1928017863   -2.0605963324
H        3.4067202244   -0.0429750673    1.2667929481
H        1.8393715216    0.1931754286    2.1211777422
