18   
Iteration 0 Energy -376.54215651
C        0.1529891000    0.0034258000   -0.0109341000
C       -0.5718456000   -0.7335336000   -1.0097175000
C       -1.9891598000   -0.7340235000   -0.9896408000
C       -2.6922260000    0.0006659000    0.0107705000
C       -1.9765297000    0.7361464000    1.0016283000
C       -0.5591128000    0.7360847000    1.0001189000
C        1.6599718000   -0.0025734000   -0.0167808000
N        2.3707013000    0.1281835000    1.1616706000
N        2.3586906000   -0.1480541000   -1.2007645000
H       -0.0337436000   -1.3332438000   -1.7693838000
H       -2.5485445000   -1.3129715000   -1.7501521000
H       -3.8007798000   -0.0003224000    0.0186179000
H       -2.5254733000    1.3134338000    1.7709751000
H       -0.0106554000    1.3357034000    1.7524364000
H        3.4220832000    0.1687448000    1.1842718000
H        1.8620079000    0.1339231000    2.0806735000
H        3.4091602000   -0.2018390000   -1.2353557000
H        1.8413633000   -0.1443219000   -2.1149466000
18   
Iteration 1 Energy -376.54205762
C        0.1536350334   -0.0242532997    0.0029987621
C       -0.5743969110   -0.7212411648   -1.0216978224
C       -1.9918355817   -0.7093860756   -1.0096074549
C       -2.6924884384    0.0064696468    0.0059974604
C       -1.9711589537    0.7113799280    1.0149875333
C       -0.5537182085    0.6995441561    1.0233285799
C        1.6602877235   -0.0251079634   -0.0115475192
N        2.3719925383    0.1815264845    1.1555731314
N        2.3542624447   -0.1952638035   -1.1951756444
H       -0.0380514203   -1.3027515808   -1.7965823986
H       -2.5526887807   -1.2618726328   -1.7885035851
H       -3.8010410920    0.0173576313    0.0094427173
H       -2.5181493968    1.2779950966    1.7935329562
H       -0.0030023083    1.2798155201    1.7891182445
H        3.4221844502    0.2459916297    1.1781809378
H        1.8633064443    0.2245327422    2.0736093950
H        3.4054196196   -0.2283070667   -1.2345731631
H        1.8315419703   -0.2311941801   -2.1056283462
18   
Iteration 2 Energy -376.54190013
C        0.1541571329   -0.0359057893    0.0113366906
C       -0.5757074147   -0.7072122361   -1.0296455295
C       -1.9928836398   -0.6874657315   -1.0244658170
C       -2.6966311103    0.0114618968    0.0009645246
C       -1.9836253543    0.6959311741    1.0293288908
C       -0.5665033253    0.6721234304    1.0348349601
C        1.6620195615   -0.0272084927   -0.0024153100
N        2.3889084228    0.2234339989    1.1467571272
N        2.3529728493   -0.2301322572   -1.1826612182
H       -0.0418772290   -1.2791972276   -1.8131929183
H       -2.5520511538   -1.2210811092   -1.8176203133
H       -3.8051039197    0.0260531126   -0.0033350138
H       -2.5309144522    1.2518016329    1.8155785960
H       -0.0207865003    1.2383877491    1.8140641442
H        3.4390968590    0.2889338631    1.1423288809
H        1.8996731627    0.2853304626    2.0738662170
H        3.4041905924   -0.2540777735   -1.2223837544
H        1.8290468991   -0.3055459957   -2.0895944865
18   
Iteration 3 Energy -376.54160296
C        0.1525579747   -0.0505755508    0.0197522302
C       -0.5778571367   -0.6864905608   -1.0444108670
C       -1.9943515609   -0.6570737134   -1.0449102204
C       -2.6983671877    0.0161348704   -0.0027406375
C       -1.9785478726    0.6644169735    1.0442303050
C       -0.5619333177    0.6378474569    1.0618057405
C        1.6599837917   -0.0328026226   -0.0011226370
N        2.3850534201    0.2880737520    1.1320435396
N        2.3543832382   -0.2823770504   -1.1711338539
H       -0.0482541605   -1.2427354146   -1.8420707934
H       -2.5532627682   -1.1627724197   -1.8562671058
H       -3.8067952622    0.0392959538   -0.0090049788
H       -2.5255943006    1.2016392401    1.8433136584
H       -0.0197134104    1.1808109426    1.8599612228
H        3.4346109452    0.3578336306    1.1176563240
H        1.9017308284    0.3832171587    2.0591171091
H        3.4056392136   -0.2932708051   -1.2093056925
H        1.8337071669   -0.4140304066   -2.0729544081
18   
Iteration 4 Energy -376.54164778
C        0.1537601490   -0.0398970763    0.0105583014
C       -0.5808912333   -0.6771881811   -1.0501015729
C       -1.9974214248   -0.6528869139   -1.0466579611
C       -2.6981149985    0.0145919992    0.0014943527
C       -1.9782581088    0.6590527939    1.0507857475
C       -0.5614821186    0.6367472320    1.0599131278
C        1.6611339039   -0.0237915300   -0.0095376801
N        2.3817824892    0.3005990668    1.1263035873
N        2.3624828200   -0.2923960775   -1.1715654359
H       -0.0552601207   -1.2314908669   -1.8516489734
H       -2.5577001478   -1.1573008786   -1.8579119112
H       -3.8066002872    0.0340042218   -0.0005623185
H       -2.5237214077    1.1877351837    1.8566544162
H       -0.0198276334    1.1734486772    1.8625480054
H        3.4320549766    0.3594571078    1.1337425472
H        1.8886717525    0.4008667930    2.0474599466
H        3.4138583187   -0.3078230425   -1.2021869013
H        1.8487404520   -0.4360942382   -2.0753676573
18   
Iteration 5 Energy -376.54166727
C        0.1528535043   -0.0276262116    0.0061206437
C       -0.5793053974   -0.6671915351   -1.0546370581
C       -1.9960071669   -0.6481067719   -1.0471428821
C       -2.7021017484    0.0119181972    0.0020928528
C       -1.9824918556    0.6542146370    1.0527896944
C       -0.5655357828    0.6391874892    1.0597543138
C        1.6600314516   -0.0161520388   -0.0092021385
N        2.3860904357    0.3095351595    1.1232541792
N        2.3623239603   -0.3022641750   -1.1663031371
H       -0.0537431492   -1.2164357759   -1.8597860095
H       -2.5542175818   -1.1527536624   -1.8596001628
H       -3.8107104022    0.0258713212    0.0006408267
H       -2.5288217102    1.1751946500    1.8630354937
H       -0.0276526825    1.1730890171    1.8667473927
H        3.4374639253    0.3451205545    1.1218506296
H        1.9008258688    0.4197456523    2.0474225069
H        3.4136990581   -0.3224586462   -1.1924817011
H        1.8516136536   -0.4531285268   -2.0707636425
18   
Iteration 6 Energy -376.54166850
C        0.1524889097   -0.0256257225    0.0054910566
C       -0.5796303733   -0.6659822423   -1.0548662029
C       -1.9963695985   -0.6504403287   -1.0488473470
C       -2.6979017032    0.0100669222    0.0030591883
C       -1.9810367723    0.6551407439    1.0540617185
C       -0.5641417759    0.6413582312    1.0600709914
C        1.6594907117   -0.0178538730   -0.0094648782
N        2.3823943605    0.3089143841    1.1245235878
N        2.3624884978   -0.3033568063   -1.1662967081
H       -0.0527697670   -1.2121604423   -1.8611500858
H       -2.5551336678   -1.1559378945   -1.8604710789
H       -3.8064677143    0.0229357000    0.0030417761
H       -2.5282466212    1.1758673623    1.8639170499
H       -0.0252740371    1.1767591361    1.8654677427
H        3.4339658526    0.3387817555    1.1221524011
H        1.8963133705    0.4224346021    2.0479787989
H        3.4138581976   -0.3233101019   -1.1936768094
H        1.8517633945   -0.4501415638   -2.0714400803
18   
Iteration 7 Energy -376.54167527
C        0.1536116309   -0.0278096031    0.0055542457
C       -0.5797042759   -0.6677011873   -1.0542581512
C       -1.9965061085   -0.6506710463   -1.0465092597
C       -2.7000293706    0.0099298379    0.0039381623
C       -1.9804044198    0.6557403039    1.0525469063
C       -0.5634826472    0.6408828839    1.0586573032
C        1.6607899691   -0.0205553344   -0.0095958485
N        2.3828621810    0.3061486416    1.1248397300
N        2.3635376459   -0.3019374269   -1.1675767121
H       -0.0535567681   -1.2136461774   -1.8611282824
H       -2.5553643230   -1.1566549376   -1.8577223990
H       -3.8086304503    0.0231039090    0.0042106986
H       -2.5265191719    1.1786381616    1.8617179551
H       -0.0239658844    1.1782276098    1.8623363880
H        3.4343255319    0.3399244483    1.1291415475
H        1.8929234954    0.4181217264    2.0464248188
H        3.4149297098   -0.3200189743   -1.1962520227
H        1.8521486957   -0.4445854902   -2.0729598441
18   
Iteration 8 Energy -376.54167604
C        0.1529192339   -0.0267915926    0.0057192365
C       -0.5793988166   -0.6670462038   -1.0546347328
C       -1.9961399726   -0.6501991363   -1.0473146164
C       -2.6996789972    0.0098720312    0.0034695510
C       -1.9808708625    0.6554342708    1.0528142524
C       -0.5639992333    0.6411298608    1.0595319077
C        1.6601720988   -0.0190020407   -0.0092548587
N        2.3844195649    0.3074659470    1.1239445290
N        2.3621942660   -0.3031386311   -1.1669809991
H       -0.0529168017   -1.2129054838   -1.8613794911
H       -2.5547892598   -1.1559005533   -1.8588496665
H       -3.8082772662    0.0226928798    0.0035444072
H       -2.5275292723    1.1776911092    1.8620320710
H       -0.0249757422    1.1781858104    1.8637321965
H        3.4359569940    0.3389401354    1.1268732820
H        1.8962241710    0.4182593149    2.0465689075
H        3.4136254399   -0.3205623181   -1.1941124958
H        1.8513276459   -0.4471962955   -2.0724475500
