
Host: aaojha

Timers On : Fri May 14 10:14:48 2021
Timers Off: Fri May 14 10:14:58 2021

Wall Time:        9.35 seconds

                                                       Time (seconds)
Module                                       User      System        Wall        Calls
V: Grid                             :      1.233u      0.017s      0.747w      1 calls
DFH: sparsity prep                  :      0.017u      0.000s      0.012w      1 calls
DFH: initialize()                   :      0.617u      0.017s      0.390w      1 calls
DFH: AO Construction                :      0.267u      0.000s      0.156w      1 calls
DFH: AO-Met. Contraction            :      0.050u      0.017s      0.046w      1 calls
HF: Form core H                     :      0.000u      0.017s      0.002w      1 calls
HF: Form S/X                        :      0.000u      0.000s      0.000w      1 calls
HF: Guess                           :      0.250u      0.000s      0.155w      1 calls
SAD Guess                           :      0.250u      0.000s      0.148w      1 calls
HF: Form G                          :      8.117u      0.083s      4.915w     14 calls
RV: Form V                          :      8.067u      0.083s      4.894w     14 calls
Properties                          :      2.083u      0.017s      1.480w  44070 calls
Functional                          :      4.517u      0.033s      2.576w  44070 calls
V_xc                                :      2.133u      0.033s      1.303w  41132 calls
JK: D                               :      0.000u      0.000s      0.000w     14 calls
JK: USO2AO                          :      0.000u      0.000s      0.000w     14 calls
JK: JK                              :      0.050u      0.000s      0.019w     14 calls
DFH: compute_JK()                   :      0.050u      0.000s      0.019w     14 calls
DFH: Grabbing AOs                   :      0.000u      0.000s      0.000w     14 calls
DFH: compute_J                      :      0.050u      0.000s      0.019w     14 calls
JK: AO2USO                          :      0.000u      0.000s      0.000w     14 calls
HF: Form F                          :      0.000u      0.000s      0.000w     14 calls
HF: Form D                          :      0.000u      0.000s      0.000w     14 calls
HF: DIIS                            :      0.017u      0.000s      0.015w     13 calls
DIISManager::add_entry              :      0.017u      0.000s      0.001w     13 calls
DIISManager::extrapolate            :      0.000u      0.000s      0.011w     13 calls
bMatrix setup                       :      0.000u      0.000s      0.010w     13 calls
bMatrix pseudoinverse               :      0.000u      0.000s      0.000w     13 calls
New vector                          :      0.000u      0.000s      0.000w     13 calls
HF: Form C                          :      0.000u      0.000s      0.003w     13 calls
Grad: V T Perturb                   :      0.083u      0.000s      0.051w      1 calls
Grad: S                             :      0.000u      0.000s      0.001w      1 calls
Grad: JK                            :      1.867u      0.017s      1.136w      1 calls
JKGrad: Amn                         :      0.300u      0.000s      0.183w      1 calls
JKGrad: Awmn                        :      0.000u      0.000s      0.000w      1 calls
JKGrad: AB                          :      0.283u      0.000s      0.165w      1 calls
JKGrad: UV                          :      0.000u      0.000s      0.000w      1 calls
JKGrad: ABx                         :      0.117u      0.000s      0.073w      1 calls
JKGrad: Amnx                        :      1.150u      0.000s      0.682w      1 calls
Grad: XC                            :      1.350u      0.017s      0.822w      1 calls
V_xc gradient                       :      0.617u      0.017s      0.294w   2938 calls

--------------------------------------------------------------------------------------
V: Grid                             :      1.233u      0.017s      0.747w      1 calls
DFH: sparsity prep                  :      0.017u      0.000s      0.012w      1 calls
DFH: initialize()                   :      0.617u      0.017s      0.390w      1 calls
| DFH: AO Construction              :      0.267u      0.000s      0.156w      1 calls
| DFH: AO-Met. Contraction          :      0.050u      0.017s      0.046w      1 calls
HF: Form core H                     :      0.000u      0.017s      0.002w      1 calls
HF: Form S/X                        :      0.000u      0.000s      0.000w      1 calls
HF: Guess                           :      0.250u      0.000s      0.155w      1 calls
| SAD Guess                         :      0.250u      0.000s      0.148w      1 calls
HF: Form G                          :      8.117u      0.083s      4.915w     14 calls
| RV: Form V                        :      8.067u      0.083s      4.894w     14 calls
| | Properties                      :      1.683u      0.017s      1.128w  41132 calls
| | Functional                      :      4.183u      0.033s      2.404w  41132 calls
| | V_xc                            :      2.133u      0.033s      1.303w  41132 calls
| JK: D                             :      0.000u      0.000s      0.000w     14 calls
| JK: USO2AO                        :      0.000u      0.000s      0.000w     14 calls
| JK: JK                            :      0.050u      0.000s      0.019w     14 calls
| | DFH: compute_JK()               :      0.050u      0.000s      0.019w     14 calls
| | | DFH: Grabbing AOs             :      0.000u      0.000s      0.000w     14 calls
| | | DFH: compute_J                :      0.050u      0.000s      0.019w     14 calls
| JK: AO2USO                        :      0.000u      0.000s      0.000w     14 calls
HF: Form F                          :      0.000u      0.000s      0.000w     14 calls
HF: Form D                          :      0.000u      0.000s      0.000w     14 calls
HF: DIIS                            :      0.017u      0.000s      0.015w     13 calls
| DIISManager::add_entry            :      0.017u      0.000s      0.001w     13 calls
| DIISManager::extrapolate          :      0.000u      0.000s      0.011w     13 calls
| | bMatrix setup                   :      0.000u      0.000s      0.010w     13 calls
| | bMatrix pseudoinverse           :      0.000u      0.000s      0.000w     13 calls
| | New vector                      :      0.000u      0.000s      0.000w     13 calls
HF: Form C                          :      0.000u      0.000s      0.003w     13 calls
Grad: V T Perturb                   :      0.083u      0.000s      0.051w      1 calls
Grad: S                             :      0.000u      0.000s      0.001w      1 calls
Grad: JK                            :      1.867u      0.017s      1.136w      1 calls
| JKGrad: Amn                       :      0.300u      0.000s      0.183w      1 calls
| JKGrad: Awmn                      :      0.000u      0.000s      0.000w      1 calls
| JKGrad: AB                        :      0.283u      0.000s      0.165w      1 calls
| JKGrad: UV                        :      0.000u      0.000s      0.000w      1 calls
| JKGrad: ABx                       :      0.117u      0.000s      0.073w      1 calls
| JKGrad: Amnx                      :      1.150u      0.000s      0.682w      1 calls
Grad: XC                            :      1.350u      0.017s      0.822w      1 calls
| Properties                        :      0.400u      0.000s      0.352w   2938 calls
| Functional                        :      0.333u      0.000s      0.172w   2938 calls
| V_xc gradient                     :      0.617u      0.017s      0.294w   2938 calls

**************************************************************************************

Host: aaojha

Timers On : Fri May 14 10:14:58 2021
Timers Off: Fri May 14 10:15:07 2021

Wall Time:        9.37 seconds

                                                       Time (seconds)
Module                                       User      System        Wall        Calls
V: Grid                             :      1.200u      0.017s      0.727w      1 calls
DFH: sparsity prep                  :      0.017u      0.000s      0.012w      1 calls
DFH: initialize()                   :      0.617u      0.017s      0.391w      1 calls
DFH: AO Construction                :      0.267u      0.000s      0.157w      1 calls
DFH: AO-Met. Contraction            :      0.050u      0.017s      0.045w      1 calls
HF: Form core H                     :      0.000u      0.000s      0.002w      1 calls
HF: Form S/X                        :      0.000u      0.000s      0.000w      1 calls
HF: Guess                           :      0.267u      0.000s      0.153w      1 calls
SAD Guess                           :      0.250u      0.000s      0.146w      1 calls
HF: Form G                          :      8.167u      0.083s      4.953w     14 calls
RV: Form V                          :      8.117u      0.083s      4.932w     14 calls
Properties                          :      2.467u      0.033s      1.501w  44265 calls
Functional                          :      4.267u      0.050s      2.593w  44265 calls
V_xc                                :      2.167u      0.000s      1.297w  41314 calls
JK: D                               :      0.000u      0.000s      0.000w     14 calls
JK: USO2AO                          :      0.000u      0.000s      0.000w     14 calls
JK: JK                              :      0.050u      0.000s      0.020w     14 calls
DFH: compute_JK()                   :      0.050u      0.000s      0.020w     14 calls
DFH: Grabbing AOs                   :      0.000u      0.000s      0.000w     14 calls
DFH: compute_J                      :      0.050u      0.000s      0.020w     14 calls
JK: AO2USO                          :      0.000u      0.000s      0.000w     14 calls
HF: Form F                          :      0.000u      0.000s      0.000w     14 calls
HF: Form D                          :      0.000u      0.000s      0.000w     14 calls
HF: DIIS                            :      0.000u      0.000s      0.006w     13 calls
DIISManager::add_entry              :      0.000u      0.000s      0.001w     13 calls
DIISManager::extrapolate            :      0.000u      0.000s      0.001w     13 calls
bMatrix setup                       :      0.000u      0.000s      0.001w     13 calls
bMatrix pseudoinverse               :      0.000u      0.000s      0.000w     13 calls
New vector                          :      0.000u      0.000s      0.000w     13 calls
HF: Form C                          :      0.000u      0.000s      0.003w     13 calls
Grad: V T Perturb                   :      0.083u      0.000s      0.051w      1 calls
Grad: S                             :      0.000u      0.000s      0.001w      1 calls
Grad: JK                            :      1.850u      0.000s      1.123w      1 calls
JKGrad: Amn                         :      0.283u      0.000s      0.172w      1 calls
JKGrad: Awmn                        :      0.000u      0.000s      0.000w      1 calls
JKGrad: AB                          :      0.283u      0.000s      0.165w      1 calls
JKGrad: UV                          :      0.000u      0.000s      0.000w      1 calls
JKGrad: ABx                         :      0.117u      0.000s      0.074w      1 calls
JKGrad: Amnx                        :      1.133u      0.000s      0.679w      1 calls
Grad: XC                            :      1.367u      0.017s      0.823w      1 calls
V_xc gradient                       :      0.500u      0.017s      0.298w   2951 calls

--------------------------------------------------------------------------------------
V: Grid                             :      1.200u      0.017s      0.727w      1 calls
DFH: sparsity prep                  :      0.017u      0.000s      0.012w      1 calls
DFH: initialize()                   :      0.617u      0.017s      0.391w      1 calls
| DFH: AO Construction              :      0.267u      0.000s      0.157w      1 calls
| DFH: AO-Met. Contraction          :      0.050u      0.017s      0.045w      1 calls
HF: Form core H                     :      0.000u      0.000s      0.002w      1 calls
HF: Form S/X                        :      0.000u      0.000s      0.000w      1 calls
HF: Guess                           :      0.267u      0.000s      0.153w      1 calls
| SAD Guess                         :      0.250u      0.000s      0.146w      1 calls
HF: Form G                          :      8.167u      0.083s      4.953w     14 calls
| RV: Form V                        :      8.117u      0.083s      4.932w     14 calls
| | Properties                      :      1.917u      0.033s      1.154w  41314 calls
| | Functional                      :      3.967u      0.050s      2.420w  41314 calls
| | V_xc                            :      2.167u      0.000s      1.297w  41314 calls
| JK: D                             :      0.000u      0.000s      0.000w     14 calls
| JK: USO2AO                        :      0.000u      0.000s      0.000w     14 calls
| JK: JK                            :      0.050u      0.000s      0.020w     14 calls
| | DFH: compute_JK()               :      0.050u      0.000s      0.020w     14 calls
| | | DFH: Grabbing AOs             :      0.000u      0.000s      0.000w     14 calls
| | | DFH: compute_J                :      0.050u      0.000s      0.020w     14 calls
| JK: AO2USO                        :      0.000u      0.000s      0.000w     14 calls
HF: Form F                          :      0.000u      0.000s      0.000w     14 calls
HF: Form D                          :      0.000u      0.000s      0.000w     14 calls
HF: DIIS                            :      0.000u      0.000s      0.006w     13 calls
| DIISManager::add_entry            :      0.000u      0.000s      0.001w     13 calls
| DIISManager::extrapolate          :      0.000u      0.000s      0.001w     13 calls
| | bMatrix setup                   :      0.000u      0.000s      0.001w     13 calls
| | bMatrix pseudoinverse           :      0.000u      0.000s      0.000w     13 calls
| | New vector                      :      0.000u      0.000s      0.000w     13 calls
HF: Form C                          :      0.000u      0.000s      0.003w     13 calls
Grad: V T Perturb                   :      0.083u      0.000s      0.051w      1 calls
Grad: S                             :      0.000u      0.000s      0.001w      1 calls
Grad: JK                            :      1.850u      0.000s      1.123w      1 calls
| JKGrad: Amn                       :      0.283u      0.000s      0.172w      1 calls
| JKGrad: Awmn                      :      0.000u      0.000s      0.000w      1 calls
| JKGrad: AB                        :      0.283u      0.000s      0.165w      1 calls
| JKGrad: UV                        :      0.000u      0.000s      0.000w      1 calls
| JKGrad: ABx                       :      0.117u      0.000s      0.074w      1 calls
| JKGrad: Amnx                      :      1.133u      0.000s      0.679w      1 calls
Grad: XC                            :      1.367u      0.017s      0.823w      1 calls
| Properties                        :      0.550u      0.000s      0.347w   2951 calls
| Functional                        :      0.300u      0.000s      0.173w   2951 calls
| V_xc gradient                     :      0.500u      0.017s      0.298w   2951 calls

**************************************************************************************

Host: aaojha

Timers On : Fri May 14 10:15:07 2021
Timers Off: Fri May 14 10:15:17 2021

Wall Time:        9.31 seconds

                                                       Time (seconds)
Module                                       User      System        Wall        Calls
V: Grid                             :      1.200u      0.033s      0.742w      1 calls
DFH: sparsity prep                  :      0.017u      0.000s      0.012w      1 calls
DFH: initialize()                   :      0.617u      0.017s      0.386w      1 calls
DFH: AO Construction                :      0.250u      0.000s      0.156w      1 calls
DFH: AO-Met. Contraction            :      0.067u      0.000s      0.045w      1 calls
HF: Form core H                     :      0.000u      0.000s      0.002w      1 calls
HF: Form S/X                        :      0.000u      0.000s      0.000w      1 calls
HF: Guess                           :      0.267u      0.000s      0.153w      1 calls
SAD Guess                           :      0.250u      0.000s      0.147w      1 calls
HF: Form G                          :      8.000u      0.133s      4.904w     14 calls
RV: Form V                          :      7.967u      0.133s      4.884w     14 calls
Properties                          :      2.467u      0.067s      1.475w  44415 calls
Functional                          :      4.150u      0.017s      2.573w  44415 calls
V_xc                                :      2.133u      0.050s      1.295w  41454 calls
JK: D                               :      0.000u      0.000s      0.000w     14 calls
JK: USO2AO                          :      0.000u      0.000s      0.000w     14 calls
JK: JK                              :      0.033u      0.000s      0.019w     14 calls
DFH: compute_JK()                   :      0.033u      0.000s      0.019w     14 calls
DFH: Grabbing AOs                   :      0.000u      0.000s      0.000w     14 calls
DFH: compute_J                      :      0.033u      0.000s      0.019w     14 calls
JK: AO2USO                          :      0.000u      0.000s      0.000w     14 calls
HF: Form F                          :      0.017u      0.000s      0.000w     14 calls
HF: Form D                          :      0.000u      0.000s      0.000w     14 calls
HF: DIIS                            :      0.017u      0.017s      0.006w     13 calls
DIISManager::add_entry              :      0.000u      0.000s      0.001w     13 calls
DIISManager::extrapolate            :      0.017u      0.000s      0.001w     13 calls
bMatrix setup                       :      0.000u      0.000s      0.001w     13 calls
bMatrix pseudoinverse               :      0.000u      0.000s      0.000w     13 calls
New vector                          :      0.017u      0.000s      0.000w     13 calls
HF: Form C                          :      0.017u      0.000s      0.003w     13 calls
Grad: V T Perturb                   :      0.083u      0.000s      0.052w      1 calls
Grad: S                             :      0.000u      0.000s      0.001w      1 calls
Grad: JK                            :      1.850u      0.017s      1.115w      1 calls
JKGrad: Amn                         :      0.283u      0.017s      0.171w      1 calls
JKGrad: Awmn                        :      0.000u      0.000s      0.000w      1 calls
JKGrad: AB                          :      0.283u      0.000s      0.165w      1 calls
JKGrad: UV                          :      0.000u      0.000s      0.000w      1 calls
JKGrad: ABx                         :      0.117u      0.000s      0.074w      1 calls
JKGrad: Amnx                        :      1.150u      0.000s      0.683w      1 calls
Grad: XC                            :      1.350u      0.000s      0.820w      1 calls
V_xc gradient                       :      0.450u      0.000s      0.297w   2961 calls

--------------------------------------------------------------------------------------
V: Grid                             :      1.200u      0.033s      0.742w      1 calls
DFH: sparsity prep                  :      0.017u      0.000s      0.012w      1 calls
DFH: initialize()                   :      0.617u      0.017s      0.386w      1 calls
| DFH: AO Construction              :      0.250u      0.000s      0.156w      1 calls
| DFH: AO-Met. Contraction          :      0.067u      0.000s      0.045w      1 calls
HF: Form core H                     :      0.000u      0.000s      0.002w      1 calls
HF: Form S/X                        :      0.000u      0.000s      0.000w      1 calls
HF: Guess                           :      0.267u      0.000s      0.153w      1 calls
| SAD Guess                         :      0.250u      0.000s      0.147w      1 calls
HF: Form G                          :      8.000u      0.133s      4.904w     14 calls
| RV: Form V                        :      7.967u      0.133s      4.884w     14 calls
| | Properties                      :      1.833u      0.067s      1.128w  41454 calls
| | Functional                      :      3.883u      0.017s      2.401w  41454 calls
| | V_xc                            :      2.133u      0.050s      1.295w  41454 calls
| JK: D                             :      0.000u      0.000s      0.000w     14 calls
| JK: USO2AO                        :      0.000u      0.000s      0.000w     14 calls
| JK: JK                            :      0.033u      0.000s      0.019w     14 calls
| | DFH: compute_JK()               :      0.033u      0.000s      0.019w     14 calls
| | | DFH: Grabbing AOs             :      0.000u      0.000s      0.000w     14 calls
| | | DFH: compute_J                :      0.033u      0.000s      0.019w     14 calls
| JK: AO2USO                        :      0.000u      0.000s      0.000w     14 calls
HF: Form F                          :      0.017u      0.000s      0.000w     14 calls
HF: Form D                          :      0.000u      0.000s      0.000w     14 calls
HF: DIIS                            :      0.017u      0.017s      0.006w     13 calls
| DIISManager::add_entry            :      0.000u      0.000s      0.001w     13 calls
| DIISManager::extrapolate          :      0.017u      0.000s      0.001w     13 calls
| | bMatrix setup                   :      0.000u      0.000s      0.001w     13 calls
| | bMatrix pseudoinverse           :      0.000u      0.000s      0.000w     13 calls
| | New vector                      :      0.017u      0.000s      0.000w     13 calls
HF: Form C                          :      0.017u      0.000s      0.003w     13 calls
Grad: V T Perturb                   :      0.083u      0.000s      0.052w      1 calls
Grad: S                             :      0.000u      0.000s      0.001w      1 calls
Grad: JK                            :      1.850u      0.017s      1.115w      1 calls
| JKGrad: Amn                       :      0.283u      0.017s      0.171w      1 calls
| JKGrad: Awmn                      :      0.000u      0.000s      0.000w      1 calls
| JKGrad: AB                        :      0.283u      0.000s      0.165w      1 calls
| JKGrad: UV                        :      0.000u      0.000s      0.000w      1 calls
| JKGrad: ABx                       :      0.117u      0.000s      0.074w      1 calls
| JKGrad: Amnx                      :      1.150u      0.000s      0.683w      1 calls
Grad: XC                            :      1.350u      0.000s      0.820w      1 calls
| Properties                        :      0.633u      0.000s      0.346w   2961 calls
| Functional                        :      0.267u      0.000s      0.173w   2961 calls
| V_xc gradient                     :      0.450u      0.000s      0.297w   2961 calls

**************************************************************************************

Host: aaojha

Timers On : Fri May 14 10:15:17 2021
Timers Off: Fri May 14 10:15:26 2021

Wall Time:        9.32 seconds

                                                       Time (seconds)
Module                                       User      System        Wall        Calls
V: Grid                             :      1.183u      0.033s      0.731w      1 calls
DFH: sparsity prep                  :      0.033u      0.000s      0.012w      1 calls
DFH: initialize()                   :      0.633u      0.017s      0.388w      1 calls
DFH: AO Construction                :      0.267u      0.000s      0.157w      1 calls
DFH: AO-Met. Contraction            :      0.083u      0.000s      0.046w      1 calls
HF: Form core H                     :      0.000u      0.000s      0.002w      1 calls
HF: Form S/X                        :      0.000u      0.000s      0.000w      1 calls
HF: Guess                           :      0.250u      0.000s      0.153w      1 calls
SAD Guess                           :      0.250u      0.000s      0.146w      1 calls
HF: Form G                          :      8.017u      0.167s      4.901w     14 calls
RV: Form V                          :      7.967u      0.167s      4.881w     14 calls
Properties                          :      2.333u      0.050s      1.474w  44400 calls
Functional                          :      4.450u      0.050s      2.575w  44400 calls
V_xc                                :      1.967u      0.067s      1.292w  41440 calls
JK: D                               :      0.000u      0.000s      0.000w     14 calls
JK: USO2AO                          :      0.000u      0.000s      0.000w     14 calls
JK: JK                              :      0.050u      0.000s      0.019w     14 calls
DFH: compute_JK()                   :      0.050u      0.000s      0.019w     14 calls
DFH: Grabbing AOs                   :      0.000u      0.000s      0.000w     14 calls
DFH: compute_J                      :      0.050u      0.000s      0.019w     14 calls
JK: AO2USO                          :      0.000u      0.000s      0.000w     14 calls
HF: Form F                          :      0.000u      0.000s      0.000w     14 calls
HF: Form D                          :      0.000u      0.000s      0.000w     14 calls
HF: DIIS                            :      0.000u      0.000s      0.006w     13 calls
DIISManager::add_entry              :      0.000u      0.000s      0.001w     13 calls
DIISManager::extrapolate            :      0.000u      0.000s      0.001w     13 calls
bMatrix setup                       :      0.000u      0.000s      0.001w     13 calls
bMatrix pseudoinverse               :      0.000u      0.000s      0.000w     13 calls
New vector                          :      0.000u      0.000s      0.000w     13 calls
HF: Form C                          :      0.000u      0.000s      0.003w     13 calls
Grad: V T Perturb                   :      0.083u      0.000s      0.051w      1 calls
Grad: S                             :      0.000u      0.000s      0.001w      1 calls
Grad: JK                            :      1.867u      0.000s      1.135w      1 calls
JKGrad: Amn                         :      0.283u      0.000s      0.172w      1 calls
JKGrad: Awmn                        :      0.000u      0.000s      0.000w      1 calls
JKGrad: AB                          :      0.267u      0.000s      0.166w      1 calls
JKGrad: UV                          :      0.000u      0.000s      0.000w      1 calls
JKGrad: ABx                         :      0.133u      0.000s      0.074w      1 calls
JKGrad: Amnx                        :      1.150u      0.000s      0.692w      1 calls
Grad: XC                            :      1.367u      0.000s      0.821w      1 calls
V_xc gradient                       :      0.433u      0.000s      0.297w   2960 calls

--------------------------------------------------------------------------------------
V: Grid                             :      1.183u      0.033s      0.731w      1 calls
DFH: sparsity prep                  :      0.033u      0.000s      0.012w      1 calls
DFH: initialize()                   :      0.633u      0.017s      0.388w      1 calls
| DFH: AO Construction              :      0.267u      0.000s      0.157w      1 calls
| DFH: AO-Met. Contraction          :      0.083u      0.000s      0.046w      1 calls
HF: Form core H                     :      0.000u      0.000s      0.002w      1 calls
HF: Form S/X                        :      0.000u      0.000s      0.000w      1 calls
HF: Guess                           :      0.250u      0.000s      0.153w      1 calls
| SAD Guess                         :      0.250u      0.000s      0.146w      1 calls
HF: Form G                          :      8.017u      0.167s      4.901w     14 calls
| RV: Form V                        :      7.967u      0.167s      4.881w     14 calls
| | Properties                      :      1.767u      0.050s      1.128w  41440 calls
| | Functional                      :      4.083u      0.050s      2.402w  41440 calls
| | V_xc                            :      1.967u      0.067s      1.292w  41440 calls
| JK: D                             :      0.000u      0.000s      0.000w     14 calls
| JK: USO2AO                        :      0.000u      0.000s      0.000w     14 calls
| JK: JK                            :      0.050u      0.000s      0.019w     14 calls
| | DFH: compute_JK()               :      0.050u      0.000s      0.019w     14 calls
| | | DFH: Grabbing AOs             :      0.000u      0.000s      0.000w     14 calls
| | | DFH: compute_J                :      0.050u      0.000s      0.019w     14 calls
| JK: AO2USO                        :      0.000u      0.000s      0.000w     14 calls
HF: Form F                          :      0.000u      0.000s      0.000w     14 calls
HF: Form D                          :      0.000u      0.000s      0.000w     14 calls
HF: DIIS                            :      0.000u      0.000s      0.006w     13 calls
| DIISManager::add_entry            :      0.000u      0.000s      0.001w     13 calls
| DIISManager::extrapolate          :      0.000u      0.000s      0.001w     13 calls
| | bMatrix setup                   :      0.000u      0.000s      0.001w     13 calls
| | bMatrix pseudoinverse           :      0.000u      0.000s      0.000w     13 calls
| | New vector                      :      0.000u      0.000s      0.000w     13 calls
HF: Form C                          :      0.000u      0.000s      0.003w     13 calls
Grad: V T Perturb                   :      0.083u      0.000s      0.051w      1 calls
Grad: S                             :      0.000u      0.000s      0.001w      1 calls
Grad: JK                            :      1.867u      0.000s      1.135w      1 calls
| JKGrad: Amn                       :      0.283u      0.000s      0.172w      1 calls
| JKGrad: Awmn                      :      0.000u      0.000s      0.000w      1 calls
| JKGrad: AB                        :      0.267u      0.000s      0.166w      1 calls
| JKGrad: UV                        :      0.000u      0.000s      0.000w      1 calls
| JKGrad: ABx                       :      0.133u      0.000s      0.074w      1 calls
| JKGrad: Amnx                      :      1.150u      0.000s      0.692w      1 calls
Grad: XC                            :      1.367u      0.000s      0.821w      1 calls
| Properties                        :      0.567u      0.000s      0.346w   2960 calls
| Functional                        :      0.367u      0.000s      0.173w   2960 calls
| V_xc gradient                     :      0.433u      0.000s      0.297w   2960 calls

**************************************************************************************

Host: aaojha

Timers On : Fri May 14 10:15:27 2021
Timers Off: Fri May 14 10:15:36 2021

Wall Time:        9.34 seconds

                                                       Time (seconds)
Module                                       User      System        Wall        Calls
V: Grid                             :      1.183u      0.033s      0.727w      1 calls
DFH: sparsity prep                  :      0.033u      0.000s      0.012w      1 calls
DFH: initialize()                   :      0.633u      0.017s      0.387w      1 calls
DFH: AO Construction                :      0.267u      0.000s      0.157w      1 calls
DFH: AO-Met. Contraction            :      0.083u      0.000s      0.046w      1 calls
HF: Form core H                     :      0.000u      0.000s      0.002w      1 calls
HF: Form S/X                        :      0.000u      0.000s      0.000w      1 calls
HF: Guess                           :      0.250u      0.000s      0.153w      1 calls
SAD Guess                           :      0.233u      0.000s      0.146w      1 calls
HF: Form G                          :      8.067u      0.167s      4.940w     14 calls
RV: Form V                          :      8.033u      0.167s      4.920w     14 calls
Properties                          :      2.367u      0.017s      1.476w  44535 calls
Functional                          :      4.317u      0.083s      2.610w  44535 calls
V_xc                                :      2.033u      0.050s      1.294w  41566 calls
JK: D                               :      0.000u      0.000s      0.000w     14 calls
JK: USO2AO                          :      0.000u      0.000s      0.000w     14 calls
JK: JK                              :      0.033u      0.000s      0.019w     14 calls
DFH: compute_JK()                   :      0.033u      0.000s      0.019w     14 calls
DFH: Grabbing AOs                   :      0.000u      0.000s      0.000w     14 calls
DFH: compute_J                      :      0.033u      0.000s      0.019w     14 calls
JK: AO2USO                          :      0.000u      0.000s      0.000w     14 calls
HF: Form F                          :      0.000u      0.000s      0.000w     14 calls
HF: Form D                          :      0.000u      0.000s      0.000w     14 calls
HF: DIIS                            :      0.017u      0.000s      0.006w     13 calls
DIISManager::add_entry              :      0.000u      0.000s      0.001w     13 calls
DIISManager::extrapolate            :      0.000u      0.000s      0.001w     13 calls
bMatrix setup                       :      0.000u      0.000s      0.001w     13 calls
bMatrix pseudoinverse               :      0.000u      0.000s      0.000w     13 calls
New vector                          :      0.000u      0.000s      0.000w     13 calls
HF: Form C                          :      0.000u      0.000s      0.003w     13 calls
Grad: V T Perturb                   :      0.083u      0.000s      0.051w      1 calls
Grad: S                             :      0.000u      0.000s      0.001w      1 calls
Grad: JK                            :      1.850u      0.000s      1.112w      1 calls
JKGrad: Amn                         :      0.283u      0.000s      0.174w      1 calls
JKGrad: Awmn                        :      0.000u      0.000s      0.000w      1 calls
JKGrad: AB                          :      0.283u      0.000s      0.166w      1 calls
JKGrad: UV                          :      0.000u      0.000s      0.000w      1 calls
JKGrad: ABx                         :      0.117u      0.000s      0.073w      1 calls
JKGrad: Amnx                        :      1.133u      0.000s      0.683w      1 calls
Grad: XC                            :      1.350u      0.033s      0.823w      1 calls
V_xc gradient                       :      0.533u      0.033s      0.298w   2969 calls

--------------------------------------------------------------------------------------
V: Grid                             :      1.183u      0.033s      0.727w      1 calls
DFH: sparsity prep                  :      0.033u      0.000s      0.012w      1 calls
DFH: initialize()                   :      0.633u      0.017s      0.387w      1 calls
| DFH: AO Construction              :      0.267u      0.000s      0.157w      1 calls
| DFH: AO-Met. Contraction          :      0.083u      0.000s      0.046w      1 calls
HF: Form core H                     :      0.000u      0.000s      0.002w      1 calls
HF: Form S/X                        :      0.000u      0.000s      0.000w      1 calls
HF: Guess                           :      0.250u      0.000s      0.153w      1 calls
| SAD Guess                         :      0.233u      0.000s      0.146w      1 calls
HF: Form G                          :      8.067u      0.167s      4.940w     14 calls
| RV: Form V                        :      8.033u      0.167s      4.920w     14 calls
| | Properties                      :      1.867u      0.017s      1.130w  41566 calls
| | Functional                      :      4.017u      0.083s      2.437w  41566 calls
| | V_xc                            :      2.033u      0.050s      1.294w  41566 calls
| JK: D                             :      0.000u      0.000s      0.000w     14 calls
| JK: USO2AO                        :      0.000u      0.000s      0.000w     14 calls
| JK: JK                            :      0.033u      0.000s      0.019w     14 calls
| | DFH: compute_JK()               :      0.033u      0.000s      0.019w     14 calls
| | | DFH: Grabbing AOs             :      0.000u      0.000s      0.000w     14 calls
| | | DFH: compute_J                :      0.033u      0.000s      0.019w     14 calls
| JK: AO2USO                        :      0.000u      0.000s      0.000w     14 calls
HF: Form F                          :      0.000u      0.000s      0.000w     14 calls
HF: Form D                          :      0.000u      0.000s      0.000w     14 calls
HF: DIIS                            :      0.017u      0.000s      0.006w     13 calls
| DIISManager::add_entry            :      0.000u      0.000s      0.001w     13 calls
| DIISManager::extrapolate          :      0.000u      0.000s      0.001w     13 calls
| | bMatrix setup                   :      0.000u      0.000s      0.001w     13 calls
| | bMatrix pseudoinverse           :      0.000u      0.000s      0.000w     13 calls
| | New vector                      :      0.000u      0.000s      0.000w     13 calls
HF: Form C                          :      0.000u      0.000s      0.003w     13 calls
Grad: V T Perturb                   :      0.083u      0.000s      0.051w      1 calls
Grad: S                             :      0.000u      0.000s      0.001w      1 calls
Grad: JK                            :      1.850u      0.000s      1.112w      1 calls
| JKGrad: Amn                       :      0.283u      0.000s      0.174w      1 calls
| JKGrad: Awmn                      :      0.000u      0.000s      0.000w      1 calls
| JKGrad: AB                        :      0.283u      0.000s      0.166w      1 calls
| JKGrad: UV                        :      0.000u      0.000s      0.000w      1 calls
| JKGrad: ABx                       :      0.117u      0.000s      0.073w      1 calls
| JKGrad: Amnx                      :      1.133u      0.000s      0.683w      1 calls
Grad: XC                            :      1.350u      0.033s      0.823w      1 calls
| Properties                        :      0.500u      0.000s      0.345w   2969 calls
| Functional                        :      0.300u      0.000s      0.173w   2969 calls
| V_xc gradient                     :      0.533u      0.033s      0.298w   2969 calls

**************************************************************************************

Host: aaojha

Timers On : Fri May 14 10:15:36 2021
Timers Off: Fri May 14 10:15:46 2021

Wall Time:        9.40 seconds

                                                       Time (seconds)
Module                                       User      System        Wall        Calls
V: Grid                             :      1.217u      0.000s      0.730w      1 calls
DFH: sparsity prep                  :      0.017u      0.000s      0.012w      1 calls
DFH: initialize()                   :      0.617u      0.033s      0.385w      1 calls
DFH: AO Construction                :      0.267u      0.000s      0.155w      1 calls
DFH: AO-Met. Contraction            :      0.067u      0.017s      0.045w      1 calls
HF: Form core H                     :      0.000u      0.000s      0.002w      1 calls
HF: Form S/X                        :      0.000u      0.000s      0.000w      1 calls
HF: Guess                           :      0.267u      0.000s      0.155w      1 calls
SAD Guess                           :      0.250u      0.000s      0.148w      1 calls
HF: Form G                          :      8.083u      0.133s      4.954w     14 calls
RV: Form V                          :      8.067u      0.133s      4.934w     14 calls
Properties                          :      2.467u      0.017s      1.482w  44970 calls
Functional                          :      4.283u      0.033s      2.620w  44970 calls
V_xc                                :      1.967u      0.083s      1.300w  41972 calls
JK: D                               :      0.000u      0.000s      0.000w     14 calls
JK: USO2AO                          :      0.000u      0.000s      0.000w     14 calls
JK: JK                              :      0.017u      0.000s      0.019w     14 calls
DFH: compute_JK()                   :      0.017u      0.000s      0.019w     14 calls
DFH: Grabbing AOs                   :      0.000u      0.000s      0.000w     14 calls
DFH: compute_J                      :      0.017u      0.000s      0.019w     14 calls
JK: AO2USO                          :      0.000u      0.000s      0.000w     14 calls
HF: Form F                          :      0.000u      0.000s      0.000w     14 calls
HF: Form D                          :      0.000u      0.000s      0.000w     14 calls
HF: DIIS                            :      0.000u      0.000s      0.006w     13 calls
DIISManager::add_entry              :      0.000u      0.000s      0.001w     13 calls
DIISManager::extrapolate            :      0.000u      0.000s      0.001w     13 calls
bMatrix setup                       :      0.000u      0.000s      0.001w     13 calls
bMatrix pseudoinverse               :      0.000u      0.000s      0.000w     13 calls
New vector                          :      0.000u      0.000s      0.000w     13 calls
HF: Form C                          :      0.000u      0.000s      0.003w     13 calls
Grad: V T Perturb                   :      0.083u      0.000s      0.052w      1 calls
Grad: S                             :      0.000u      0.000s      0.001w      1 calls
Grad: JK                            :      1.850u      0.000s      1.129w      1 calls
JKGrad: Amn                         :      0.283u      0.000s      0.172w      1 calls
JKGrad: Awmn                        :      0.000u      0.000s      0.000w      1 calls
JKGrad: AB                          :      0.267u      0.000s      0.164w      1 calls
JKGrad: UV                          :      0.000u      0.000s      0.000w      1 calls
JKGrad: ABx                         :      0.133u      0.000s      0.074w      1 calls
JKGrad: Amnx                        :      1.133u      0.000s      0.687w      1 calls
Grad: XC                            :      1.400u      0.000s      0.833w      1 calls
V_xc gradient                       :      0.600u      0.000s      0.302w   2998 calls

--------------------------------------------------------------------------------------
V: Grid                             :      1.217u      0.000s      0.730w      1 calls
DFH: sparsity prep                  :      0.017u      0.000s      0.012w      1 calls
DFH: initialize()                   :      0.617u      0.033s      0.385w      1 calls
| DFH: AO Construction              :      0.267u      0.000s      0.155w      1 calls
| DFH: AO-Met. Contraction          :      0.067u      0.017s      0.045w      1 calls
HF: Form core H                     :      0.000u      0.000s      0.002w      1 calls
HF: Form S/X                        :      0.000u      0.000s      0.000w      1 calls
HF: Guess                           :      0.267u      0.000s      0.155w      1 calls
| SAD Guess                         :      0.250u      0.000s      0.148w      1 calls
HF: Form G                          :      8.083u      0.133s      4.954w     14 calls
| RV: Form V                        :      8.067u      0.133s      4.934w     14 calls
| | Properties                      :      1.933u      0.017s      1.134w  41972 calls
| | Functional                      :      4.033u      0.033s      2.441w  41972 calls
| | V_xc                            :      1.967u      0.083s      1.300w  41972 calls
| JK: D                             :      0.000u      0.000s      0.000w     14 calls
| JK: USO2AO                        :      0.000u      0.000s      0.000w     14 calls
| JK: JK                            :      0.017u      0.000s      0.019w     14 calls
| | DFH: compute_JK()               :      0.017u      0.000s      0.019w     14 calls
| | | DFH: Grabbing AOs             :      0.000u      0.000s      0.000w     14 calls
| | | DFH: compute_J                :      0.017u      0.000s      0.019w     14 calls
| JK: AO2USO                        :      0.000u      0.000s      0.000w     14 calls
HF: Form F                          :      0.000u      0.000s      0.000w     14 calls
HF: Form D                          :      0.000u      0.000s      0.000w     14 calls
HF: DIIS                            :      0.000u      0.000s      0.006w     13 calls
| DIISManager::add_entry            :      0.000u      0.000s      0.001w     13 calls
| DIISManager::extrapolate          :      0.000u      0.000s      0.001w     13 calls
| | bMatrix setup                   :      0.000u      0.000s      0.001w     13 calls
| | bMatrix pseudoinverse           :      0.000u      0.000s      0.000w     13 calls
| | New vector                      :      0.000u      0.000s      0.000w     13 calls
HF: Form C                          :      0.000u      0.000s      0.003w     13 calls
Grad: V T Perturb                   :      0.083u      0.000s      0.052w      1 calls
Grad: S                             :      0.000u      0.000s      0.001w      1 calls
Grad: JK                            :      1.850u      0.000s      1.129w      1 calls
| JKGrad: Amn                       :      0.283u      0.000s      0.172w      1 calls
| JKGrad: Awmn                      :      0.000u      0.000s      0.000w      1 calls
| JKGrad: AB                        :      0.267u      0.000s      0.164w      1 calls
| JKGrad: UV                        :      0.000u      0.000s      0.000w      1 calls
| JKGrad: ABx                       :      0.133u      0.000s      0.074w      1 calls
| JKGrad: Amnx                      :      1.133u      0.000s      0.687w      1 calls
Grad: XC                            :      1.400u      0.000s      0.833w      1 calls
| Properties                        :      0.533u      0.000s      0.347w   2998 calls
| Functional                        :      0.250u      0.000s      0.179w   2998 calls
| V_xc gradient                     :      0.600u      0.000s      0.302w   2998 calls

**************************************************************************************

Host: aaojha

Timers On : Fri May 14 10:15:46 2021
Timers Off: Fri May 14 10:15:55 2021

Wall Time:        9.38 seconds

                                                       Time (seconds)
Module                                       User      System        Wall        Calls
V: Grid                             :      1.183u      0.017s      0.724w      1 calls
DFH: sparsity prep                  :      0.017u      0.000s      0.013w      1 calls
DFH: initialize()                   :      0.633u      0.017s      0.388w      1 calls
DFH: AO Construction                :      0.267u      0.000s      0.156w      1 calls
DFH: AO-Met. Contraction            :      0.067u      0.000s      0.046w      1 calls
HF: Form core H                     :      0.000u      0.000s      0.002w      1 calls
HF: Form S/X                        :      0.000u      0.000s      0.000w      1 calls
HF: Guess                           :      0.250u      0.000s      0.153w      1 calls
SAD Guess                           :      0.233u      0.000s      0.147w      1 calls
HF: Form G                          :      8.083u      0.150s      4.961w     14 calls
RV: Form V                          :      8.050u      0.150s      4.941w     14 calls
Properties                          :      2.350u      0.000s      1.481w  44925 calls
Functional                          :      4.650u      0.083s      2.624w  44925 calls
V_xc                                :      1.767u      0.067s      1.299w  41930 calls
JK: D                               :      0.000u      0.000s      0.000w     14 calls
JK: USO2AO                          :      0.000u      0.000s      0.000w     14 calls
JK: JK                              :      0.017u      0.000s      0.019w     14 calls
DFH: compute_JK()                   :      0.017u      0.000s      0.019w     14 calls
DFH: Grabbing AOs                   :      0.000u      0.000s      0.000w     14 calls
DFH: compute_J                      :      0.017u      0.000s      0.019w     14 calls
JK: AO2USO                          :      0.017u      0.000s      0.000w     14 calls
HF: Form F                          :      0.000u      0.000s      0.000w     14 calls
HF: Form D                          :      0.000u      0.000s      0.000w     14 calls
HF: DIIS                            :      0.050u      0.000s      0.006w     13 calls
DIISManager::add_entry              :      0.000u      0.000s      0.001w     13 calls
DIISManager::extrapolate            :      0.000u      0.000s      0.001w     13 calls
bMatrix setup                       :      0.000u      0.000s      0.001w     13 calls
bMatrix pseudoinverse               :      0.000u      0.000s      0.000w     13 calls
New vector                          :      0.000u      0.000s      0.000w     13 calls
HF: Form C                          :      0.000u      0.000s      0.003w     13 calls
Grad: V T Perturb                   :      0.083u      0.000s      0.051w      1 calls
Grad: S                             :      0.000u      0.000s      0.001w      1 calls
Grad: JK                            :      1.833u      0.000s      1.122w      1 calls
JKGrad: Amn                         :      0.300u      0.000s      0.172w      1 calls
JKGrad: Awmn                        :      0.000u      0.000s      0.000w      1 calls
JKGrad: AB                          :      0.267u      0.000s      0.163w      1 calls
JKGrad: UV                          :      0.000u      0.000s      0.000w      1 calls
JKGrad: ABx                         :      0.117u      0.000s      0.074w      1 calls
JKGrad: Amnx                        :      1.133u      0.000s      0.681w      1 calls
Grad: XC                            :      1.367u      0.000s      0.822w      1 calls
V_xc gradient                       :      0.517u      0.000s      0.294w   2995 calls

--------------------------------------------------------------------------------------
V: Grid                             :      1.183u      0.017s      0.724w      1 calls
DFH: sparsity prep                  :      0.017u      0.000s      0.013w      1 calls
DFH: initialize()                   :      0.633u      0.017s      0.388w      1 calls
| DFH: AO Construction              :      0.267u      0.000s      0.156w      1 calls
| DFH: AO-Met. Contraction          :      0.067u      0.000s      0.046w      1 calls
HF: Form core H                     :      0.000u      0.000s      0.002w      1 calls
HF: Form S/X                        :      0.000u      0.000s      0.000w      1 calls
HF: Guess                           :      0.250u      0.000s      0.153w      1 calls
| SAD Guess                         :      0.233u      0.000s      0.147w      1 calls
HF: Form G                          :      8.083u      0.150s      4.961w     14 calls
| RV: Form V                        :      8.050u      0.150s      4.941w     14 calls
| | Properties                      :      1.783u      0.000s      1.135w  41930 calls
| | Functional                      :      4.383u      0.083s      2.447w  41930 calls
| | V_xc                            :      1.767u      0.067s      1.299w  41930 calls
| JK: D                             :      0.000u      0.000s      0.000w     14 calls
| JK: USO2AO                        :      0.000u      0.000s      0.000w     14 calls
| JK: JK                            :      0.017u      0.000s      0.019w     14 calls
| | DFH: compute_JK()               :      0.017u      0.000s      0.019w     14 calls
| | | DFH: Grabbing AOs             :      0.000u      0.000s      0.000w     14 calls
| | | DFH: compute_J                :      0.017u      0.000s      0.019w     14 calls
| JK: AO2USO                        :      0.017u      0.000s      0.000w     14 calls
HF: Form F                          :      0.000u      0.000s      0.000w     14 calls
HF: Form D                          :      0.000u      0.000s      0.000w     14 calls
HF: DIIS                            :      0.050u      0.000s      0.006w     13 calls
| DIISManager::add_entry            :      0.000u      0.000s      0.001w     13 calls
| DIISManager::extrapolate          :      0.000u      0.000s      0.001w     13 calls
| | bMatrix setup                   :      0.000u      0.000s      0.001w     13 calls
| | bMatrix pseudoinverse           :      0.000u      0.000s      0.000w     13 calls
| | New vector                      :      0.000u      0.000s      0.000w     13 calls
HF: Form C                          :      0.000u      0.000s      0.003w     13 calls
Grad: V T Perturb                   :      0.083u      0.000s      0.051w      1 calls
Grad: S                             :      0.000u      0.000s      0.001w      1 calls
Grad: JK                            :      1.833u      0.000s      1.122w      1 calls
| JKGrad: Amn                       :      0.300u      0.000s      0.172w      1 calls
| JKGrad: Awmn                      :      0.000u      0.000s      0.000w      1 calls
| JKGrad: AB                        :      0.267u      0.000s      0.163w      1 calls
| JKGrad: UV                        :      0.000u      0.000s      0.000w      1 calls
| JKGrad: ABx                       :      0.117u      0.000s      0.074w      1 calls
| JKGrad: Amnx                      :      1.133u      0.000s      0.681w      1 calls
Grad: XC                            :      1.367u      0.000s      0.822w      1 calls
| Properties                        :      0.567u      0.000s      0.347w   2995 calls
| Functional                        :      0.267u      0.000s      0.177w   2995 calls
| V_xc gradient                     :      0.517u      0.000s      0.294w   2995 calls

**************************************************************************************

Host: aaojha

Timers On : Fri May 14 10:15:56 2021
Timers Off: Fri May 14 10:16:05 2021

Wall Time:        9.41 seconds

                                                       Time (seconds)
Module                                       User      System        Wall        Calls
V: Grid                             :      1.217u      0.017s      0.742w      1 calls
DFH: sparsity prep                  :      0.017u      0.000s      0.016w      1 calls
DFH: initialize()                   :      0.617u      0.017s      0.387w      1 calls
DFH: AO Construction                :      0.250u      0.000s      0.155w      1 calls
DFH: AO-Met. Contraction            :      0.083u      0.000s      0.046w      1 calls
HF: Form core H                     :      0.000u      0.000s      0.002w      1 calls
HF: Form S/X                        :      0.000u      0.000s      0.000w      1 calls
HF: Guess                           :      0.250u      0.000s      0.153w      1 calls
SAD Guess                           :      0.250u      0.000s      0.146w      1 calls
HF: Form G                          :      8.183u      0.117s      4.982w     14 calls
RV: Form V                          :      8.133u      0.117s      4.961w     14 calls
Properties                          :      2.133u      0.000s      1.505w  44940 calls
Functional                          :      4.517u      0.100s      2.614w  44940 calls
V_xc                                :      2.100u      0.017s      1.304w  41944 calls
JK: D                               :      0.000u      0.000s      0.000w     14 calls
JK: USO2AO                          :      0.000u      0.000s      0.000w     14 calls
JK: JK                              :      0.050u      0.000s      0.020w     14 calls
DFH: compute_JK()                   :      0.050u      0.000s      0.020w     14 calls
DFH: Grabbing AOs                   :      0.000u      0.000s      0.000w     14 calls
DFH: compute_J                      :      0.050u      0.000s      0.020w     14 calls
JK: AO2USO                          :      0.000u      0.000s      0.000w     14 calls
HF: Form F                          :      0.000u      0.000s      0.000w     14 calls
HF: Form D                          :      0.000u      0.000s      0.000w     14 calls
HF: DIIS                            :      0.000u      0.000s      0.006w     13 calls
DIISManager::add_entry              :      0.000u      0.000s      0.001w     13 calls
DIISManager::extrapolate            :      0.000u      0.000s      0.001w     13 calls
bMatrix setup                       :      0.000u      0.000s      0.001w     13 calls
bMatrix pseudoinverse               :      0.000u      0.000s      0.000w     13 calls
New vector                          :      0.000u      0.000s      0.000w     13 calls
HF: Form C                          :      0.000u      0.000s      0.003w     13 calls
Grad: V T Perturb                   :      0.083u      0.000s      0.051w      1 calls
Grad: S                             :      0.017u      0.000s      0.001w      1 calls
Grad: JK                            :      1.833u      0.000s      1.123w      1 calls
JKGrad: Amn                         :      0.283u      0.000s      0.170w      1 calls
JKGrad: Awmn                        :      0.000u      0.000s      0.000w      1 calls
JKGrad: AB                          :      0.267u      0.000s      0.165w      1 calls
JKGrad: UV                          :      0.000u      0.000s      0.000w      1 calls
JKGrad: ABx                         :      0.133u      0.000s      0.074w      1 calls
JKGrad: Amnx                        :      1.133u      0.000s      0.682w      1 calls
Grad: XC                            :      1.367u      0.000s      0.825w      1 calls
V_xc gradient                       :      0.633u      0.000s      0.298w   2996 calls

--------------------------------------------------------------------------------------
V: Grid                             :      1.217u      0.017s      0.742w      1 calls
DFH: sparsity prep                  :      0.017u      0.000s      0.016w      1 calls
DFH: initialize()                   :      0.617u      0.017s      0.387w      1 calls
| DFH: AO Construction              :      0.250u      0.000s      0.155w      1 calls
| DFH: AO-Met. Contraction          :      0.083u      0.000s      0.046w      1 calls
HF: Form core H                     :      0.000u      0.000s      0.002w      1 calls
HF: Form S/X                        :      0.000u      0.000s      0.000w      1 calls
HF: Guess                           :      0.250u      0.000s      0.153w      1 calls
| SAD Guess                         :      0.250u      0.000s      0.146w      1 calls
HF: Form G                          :      8.183u      0.117s      4.982w     14 calls
| RV: Form V                        :      8.133u      0.117s      4.961w     14 calls
| | Properties                      :      1.767u      0.000s      1.159w  41944 calls
| | Functional                      :      4.167u      0.100s      2.439w  41944 calls
| | V_xc                            :      2.100u      0.017s      1.304w  41944 calls
| JK: D                             :      0.000u      0.000s      0.000w     14 calls
| JK: USO2AO                        :      0.000u      0.000s      0.000w     14 calls
| JK: JK                            :      0.050u      0.000s      0.020w     14 calls
| | DFH: compute_JK()               :      0.050u      0.000s      0.020w     14 calls
| | | DFH: Grabbing AOs             :      0.000u      0.000s      0.000w     14 calls
| | | DFH: compute_J                :      0.050u      0.000s      0.020w     14 calls
| JK: AO2USO                        :      0.000u      0.000s      0.000w     14 calls
HF: Form F                          :      0.000u      0.000s      0.000w     14 calls
HF: Form D                          :      0.000u      0.000s      0.000w     14 calls
HF: DIIS                            :      0.000u      0.000s      0.006w     13 calls
| DIISManager::add_entry            :      0.000u      0.000s      0.001w     13 calls
| DIISManager::extrapolate          :      0.000u      0.000s      0.001w     13 calls
| | bMatrix setup                   :      0.000u      0.000s      0.001w     13 calls
| | bMatrix pseudoinverse           :      0.000u      0.000s      0.000w     13 calls
| | New vector                      :      0.000u      0.000s      0.000w     13 calls
HF: Form C                          :      0.000u      0.000s      0.003w     13 calls
Grad: V T Perturb                   :      0.083u      0.000s      0.051w      1 calls
Grad: S                             :      0.017u      0.000s      0.001w      1 calls
Grad: JK                            :      1.833u      0.000s      1.123w      1 calls
| JKGrad: Amn                       :      0.283u      0.000s      0.170w      1 calls
| JKGrad: Awmn                      :      0.000u      0.000s      0.000w      1 calls
| JKGrad: AB                        :      0.267u      0.000s      0.165w      1 calls
| JKGrad: UV                        :      0.000u      0.000s      0.000w      1 calls
| JKGrad: ABx                       :      0.133u      0.000s      0.074w      1 calls
| JKGrad: Amnx                      :      1.133u      0.000s      0.682w      1 calls
Grad: XC                            :      1.367u      0.000s      0.825w      1 calls
| Properties                        :      0.367u      0.000s      0.346w   2996 calls
| Functional                        :      0.350u      0.000s      0.176w   2996 calls
| V_xc gradient                     :      0.633u      0.000s      0.298w   2996 calls

**************************************************************************************

Host: aaojha

Timers On : Fri May 14 10:16:05 2021
Timers Off: Fri May 14 10:16:15 2021

Wall Time:        9.39 seconds

                                                       Time (seconds)
Module                                       User      System        Wall        Calls
V: Grid                             :      1.200u      0.000s      0.728w      1 calls
DFH: sparsity prep                  :      0.033u      0.000s      0.013w      1 calls
DFH: initialize()                   :      0.600u      0.033s      0.385w      1 calls
DFH: AO Construction                :      0.250u      0.000s      0.155w      1 calls
DFH: AO-Met. Contraction            :      0.067u      0.000s      0.045w      1 calls
HF: Form core H                     :      0.000u      0.000s      0.002w      1 calls
HF: Form S/X                        :      0.000u      0.000s      0.000w      1 calls
HF: Guess                           :      0.250u      0.000s      0.153w      1 calls
SAD Guess                           :      0.250u      0.000s      0.146w      1 calls
HF: Form G                          :      8.167u      0.100s      4.966w     14 calls
RV: Form V                          :      8.133u      0.100s      4.946w     14 calls
Properties                          :      2.117u      0.017s      1.497w  44820 calls
Functional                          :      4.600u      0.083s      2.615w  44820 calls
V_xc                                :      2.117u      0.000s      1.310w  41832 calls
JK: D                               :      0.000u      0.000s      0.000w     14 calls
JK: USO2AO                          :      0.000u      0.000s      0.000w     14 calls
JK: JK                              :      0.033u      0.000s      0.020w     14 calls
DFH: compute_JK()                   :      0.033u      0.000s      0.020w     14 calls
DFH: Grabbing AOs                   :      0.000u      0.000s      0.000w     14 calls
DFH: compute_J                      :      0.033u      0.000s      0.019w     14 calls
JK: AO2USO                          :      0.000u      0.000s      0.000w     14 calls
HF: Form F                          :      0.000u      0.000s      0.000w     14 calls
HF: Form D                          :      0.000u      0.000s      0.000w     14 calls
HF: DIIS                            :      0.000u      0.000s      0.006w     13 calls
DIISManager::add_entry              :      0.000u      0.000s      0.001w     13 calls
DIISManager::extrapolate            :      0.000u      0.000s      0.001w     13 calls
bMatrix setup                       :      0.000u      0.000s      0.001w     13 calls
bMatrix pseudoinverse               :      0.000u      0.000s      0.000w     13 calls
New vector                          :      0.000u      0.000s      0.000w     13 calls
HF: Form C                          :      0.000u      0.000s      0.003w     13 calls
Grad: V T Perturb                   :      0.083u      0.000s      0.050w      1 calls
Grad: S                             :      0.000u      0.000s      0.001w      1 calls
Grad: JK                            :      1.850u      0.000s      1.119w      1 calls
JKGrad: Amn                         :      0.283u      0.000s      0.171w      1 calls
JKGrad: Awmn                        :      0.000u      0.000s      0.000w      1 calls
JKGrad: AB                          :      0.283u      0.000s      0.165w      1 calls
JKGrad: UV                          :      0.000u      0.000s      0.000w      1 calls
JKGrad: ABx                         :      0.117u      0.000s      0.074w      1 calls
JKGrad: Amnx                        :      1.150u      0.000s      0.686w      1 calls
Grad: XC                            :      1.383u      0.000s      0.837w      1 calls
V_xc gradient                       :      0.483u      0.000s      0.297w   2988 calls

--------------------------------------------------------------------------------------
V: Grid                             :      1.200u      0.000s      0.728w      1 calls
DFH: sparsity prep                  :      0.033u      0.000s      0.013w      1 calls
DFH: initialize()                   :      0.600u      0.033s      0.385w      1 calls
| DFH: AO Construction              :      0.250u      0.000s      0.155w      1 calls
| DFH: AO-Met. Contraction          :      0.067u      0.000s      0.045w      1 calls
HF: Form core H                     :      0.000u      0.000s      0.002w      1 calls
HF: Form S/X                        :      0.000u      0.000s      0.000w      1 calls
HF: Guess                           :      0.250u      0.000s      0.153w      1 calls
| SAD Guess                         :      0.250u      0.000s      0.146w      1 calls
HF: Form G                          :      8.167u      0.100s      4.966w     14 calls
| RV: Form V                        :      8.133u      0.100s      4.946w     14 calls
| | Properties                      :      1.500u      0.017s      1.138w  41832 calls
| | Functional                      :      4.333u      0.083s      2.438w  41832 calls
| | V_xc                            :      2.117u      0.000s      1.310w  41832 calls
| JK: D                             :      0.000u      0.000s      0.000w     14 calls
| JK: USO2AO                        :      0.000u      0.000s      0.000w     14 calls
| JK: JK                            :      0.033u      0.000s      0.020w     14 calls
| | DFH: compute_JK()               :      0.033u      0.000s      0.020w     14 calls
| | | DFH: Grabbing AOs             :      0.000u      0.000s      0.000w     14 calls
| | | DFH: compute_J                :      0.033u      0.000s      0.019w     14 calls
| JK: AO2USO                        :      0.000u      0.000s      0.000w     14 calls
HF: Form F                          :      0.000u      0.000s      0.000w     14 calls
HF: Form D                          :      0.000u      0.000s      0.000w     14 calls
HF: DIIS                            :      0.000u      0.000s      0.006w     13 calls
| DIISManager::add_entry            :      0.000u      0.000s      0.001w     13 calls
| DIISManager::extrapolate          :      0.000u      0.000s      0.001w     13 calls
| | bMatrix setup                   :      0.000u      0.000s      0.001w     13 calls
| | bMatrix pseudoinverse           :      0.000u      0.000s      0.000w     13 calls
| | New vector                      :      0.000u      0.000s      0.000w     13 calls
HF: Form C                          :      0.000u      0.000s      0.003w     13 calls
Grad: V T Perturb                   :      0.083u      0.000s      0.050w      1 calls
Grad: S                             :      0.000u      0.000s      0.001w      1 calls
Grad: JK                            :      1.850u      0.000s      1.119w      1 calls
| JKGrad: Amn                       :      0.283u      0.000s      0.171w      1 calls
| JKGrad: Awmn                      :      0.000u      0.000s      0.000w      1 calls
| JKGrad: AB                        :      0.283u      0.000s      0.165w      1 calls
| JKGrad: UV                        :      0.000u      0.000s      0.000w      1 calls
| JKGrad: ABx                       :      0.117u      0.000s      0.074w      1 calls
| JKGrad: Amnx                      :      1.150u      0.000s      0.686w      1 calls
Grad: XC                            :      1.383u      0.000s      0.837w      1 calls
| Properties                        :      0.617u      0.000s      0.358w   2988 calls
| Functional                        :      0.267u      0.000s      0.178w   2988 calls
| V_xc gradient                     :      0.483u      0.000s      0.297w   2988 calls

**************************************************************************************

Host: aaojha

Timers On : Fri May 14 10:16:15 2021
Timers Off: Fri May 14 10:16:24 2021

Wall Time:        9.39 seconds

                                                       Time (seconds)
Module                                       User      System        Wall        Calls
V: Grid                             :      1.200u      0.017s      0.729w      1 calls
DFH: sparsity prep                  :      0.017u      0.000s      0.012w      1 calls
DFH: initialize()                   :      0.633u      0.017s      0.388w      1 calls
DFH: AO Construction                :      0.250u      0.000s      0.158w      1 calls
DFH: AO-Met. Contraction            :      0.083u      0.000s      0.046w      1 calls
HF: Form core H                     :      0.000u      0.000s      0.002w      1 calls
HF: Form S/X                        :      0.000u      0.000s      0.000w      1 calls
HF: Guess                           :      0.250u      0.000s      0.153w      1 calls
SAD Guess                           :      0.233u      0.000s      0.146w      1 calls
HF: Form G                          :      8.183u      0.083s      4.947w     14 calls
RV: Form V                          :      8.167u      0.083s      4.926w     14 calls
Properties                          :      2.367u      0.017s      1.489w  44850 calls
Functional                          :      4.450u      0.050s      2.601w  44850 calls
V_xc                                :      2.100u      0.017s      1.306w  41860 calls
JK: D                               :      0.000u      0.000s      0.000w     14 calls
JK: USO2AO                          :      0.000u      0.000s      0.000w     14 calls
JK: JK                              :      0.017u      0.000s      0.020w     14 calls
DFH: compute_JK()                   :      0.017u      0.000s      0.020w     14 calls
DFH: Grabbing AOs                   :      0.000u      0.000s      0.000w     14 calls
DFH: compute_J                      :      0.017u      0.000s      0.019w     14 calls
JK: AO2USO                          :      0.000u      0.000s      0.000w     14 calls
HF: Form F                          :      0.000u      0.000s      0.000w     14 calls
HF: Form D                          :      0.000u      0.000s      0.000w     14 calls
HF: DIIS                            :      0.000u      0.000s      0.015w     13 calls
DIISManager::add_entry              :      0.000u      0.000s      0.001w     13 calls
DIISManager::extrapolate            :      0.000u      0.000s      0.011w     13 calls
bMatrix setup                       :      0.000u      0.000s      0.010w     13 calls
bMatrix pseudoinverse               :      0.000u      0.000s      0.000w     13 calls
New vector                          :      0.000u      0.000s      0.000w     13 calls
HF: Form C                          :      0.000u      0.000s      0.003w     13 calls
Grad: V T Perturb                   :      0.083u      0.000s      0.052w      1 calls
Grad: S                             :      0.000u      0.000s      0.001w      1 calls
Grad: JK                            :      1.883u      0.000s      1.137w      1 calls
JKGrad: Amn                         :      0.300u      0.000s      0.187w      1 calls
JKGrad: Awmn                        :      0.000u      0.000s      0.000w      1 calls
JKGrad: AB                          :      0.283u      0.000s      0.167w      1 calls
JKGrad: UV                          :      0.000u      0.000s      0.000w      1 calls
JKGrad: ABx                         :      0.133u      0.000s      0.074w      1 calls
JKGrad: Amnx                        :      1.133u      0.000s      0.685w      1 calls
Grad: XC                            :      1.367u      0.000s      0.827w      1 calls
V_xc gradient                       :      0.433u      0.000s      0.292w   2990 calls

--------------------------------------------------------------------------------------
V: Grid                             :      1.200u      0.017s      0.729w      1 calls
DFH: sparsity prep                  :      0.017u      0.000s      0.012w      1 calls
DFH: initialize()                   :      0.633u      0.017s      0.388w      1 calls
| DFH: AO Construction              :      0.250u      0.000s      0.158w      1 calls
| DFH: AO-Met. Contraction          :      0.083u      0.000s      0.046w      1 calls
HF: Form core H                     :      0.000u      0.000s      0.002w      1 calls
HF: Form S/X                        :      0.000u      0.000s      0.000w      1 calls
HF: Guess                           :      0.250u      0.000s      0.153w      1 calls
| SAD Guess                         :      0.233u      0.000s      0.146w      1 calls
HF: Form G                          :      8.183u      0.083s      4.947w     14 calls
| RV: Form V                        :      8.167u      0.083s      4.926w     14 calls
| | Properties                      :      1.800u      0.017s      1.134w  41860 calls
| | Functional                      :      4.100u      0.050s      2.427w  41860 calls
| | V_xc                            :      2.100u      0.017s      1.306w  41860 calls
| JK: D                             :      0.000u      0.000s      0.000w     14 calls
| JK: USO2AO                        :      0.000u      0.000s      0.000w     14 calls
| JK: JK                            :      0.017u      0.000s      0.020w     14 calls
| | DFH: compute_JK()               :      0.017u      0.000s      0.020w     14 calls
| | | DFH: Grabbing AOs             :      0.000u      0.000s      0.000w     14 calls
| | | DFH: compute_J                :      0.017u      0.000s      0.019w     14 calls
| JK: AO2USO                        :      0.000u      0.000s      0.000w     14 calls
HF: Form F                          :      0.000u      0.000s      0.000w     14 calls
HF: Form D                          :      0.000u      0.000s      0.000w     14 calls
HF: DIIS                            :      0.000u      0.000s      0.015w     13 calls
| DIISManager::add_entry            :      0.000u      0.000s      0.001w     13 calls
| DIISManager::extrapolate          :      0.000u      0.000s      0.011w     13 calls
| | bMatrix setup                   :      0.000u      0.000s      0.010w     13 calls
| | bMatrix pseudoinverse           :      0.000u      0.000s      0.000w     13 calls
| | New vector                      :      0.000u      0.000s      0.000w     13 calls
HF: Form C                          :      0.000u      0.000s      0.003w     13 calls
Grad: V T Perturb                   :      0.083u      0.000s      0.052w      1 calls
Grad: S                             :      0.000u      0.000s      0.001w      1 calls
Grad: JK                            :      1.883u      0.000s      1.137w      1 calls
| JKGrad: Amn                       :      0.300u      0.000s      0.187w      1 calls
| JKGrad: Awmn                      :      0.000u      0.000s      0.000w      1 calls
| JKGrad: AB                        :      0.283u      0.000s      0.167w      1 calls
| JKGrad: UV                        :      0.000u      0.000s      0.000w      1 calls
| JKGrad: ABx                       :      0.133u      0.000s      0.074w      1 calls
| JKGrad: Amnx                      :      1.133u      0.000s      0.685w      1 calls
Grad: XC                            :      1.367u      0.000s      0.827w      1 calls
| Properties                        :      0.567u      0.000s      0.355w   2990 calls
| Functional                        :      0.350u      0.000s      0.174w   2990 calls
| V_xc gradient                     :      0.433u      0.000s      0.292w   2990 calls

**************************************************************************************

Host: aaojha

Timers On : Fri May 14 10:16:25 2021
Timers Off: Fri May 14 10:16:34 2021

Wall Time:        9.40 seconds

                                                       Time (seconds)
Module                                       User      System        Wall        Calls
V: Grid                             :      1.250u      0.017s      0.753w      1 calls
DFH: sparsity prep                  :      0.017u      0.000s      0.012w      1 calls
DFH: initialize()                   :      0.583u      0.050s      0.384w      1 calls
DFH: AO Construction                :      0.250u      0.000s      0.155w      1 calls
DFH: AO-Met. Contraction            :      0.050u      0.017s      0.045w      1 calls
HF: Form core H                     :      0.000u      0.000s      0.002w      1 calls
HF: Form S/X                        :      0.000u      0.000s      0.000w      1 calls
HF: Guess                           :      0.267u      0.000s      0.153w      1 calls
SAD Guess                           :      0.250u      0.000s      0.146w      1 calls
HF: Form G                          :      8.133u      0.100s      4.968w     14 calls
RV: Form V                          :      8.117u      0.100s      4.948w     14 calls
Properties                          :      2.533u      0.017s      1.481w  44880 calls
Functional                          :      4.350u      0.067s      2.618w  44880 calls
V_xc                                :      1.983u      0.017s      1.307w  41888 calls
JK: D                               :      0.000u      0.000s      0.000w     14 calls
JK: USO2AO                          :      0.000u      0.000s      0.000w     14 calls
JK: JK                              :      0.017u      0.000s      0.019w     14 calls
DFH: compute_JK()                   :      0.017u      0.000s      0.019w     14 calls
DFH: Grabbing AOs                   :      0.000u      0.000s      0.000w     14 calls
DFH: compute_J                      :      0.017u      0.000s      0.019w     14 calls
JK: AO2USO                          :      0.000u      0.000s      0.000w     14 calls
HF: Form F                          :      0.000u      0.000s      0.000w     14 calls
HF: Form D                          :      0.000u      0.000s      0.000w     14 calls
HF: DIIS                            :      0.000u      0.000s      0.015w     13 calls
[...]
JKGrad: AB                          :      0.267u      0.000s      0.164w      1 calls
JKGrad: UV                          :      0.000u      0.000s      0.000w      1 calls
JKGrad: ABx                         :      0.133u      0.000s      0.073w      1 calls
JKGrad: Amnx                        :      1.133u      0.000s      0.685w      1 calls
Grad: XC                            :      1.367u      0.000s      0.817w      1 calls
V_xc gradient                       :      0.500u      0.000s      0.293w   2992 calls

--------------------------------------------------------------------------------------
V: Grid                             :      1.250u      0.017s      0.753w      1 calls
DFH: sparsity prep                  :      0.017u      0.000s      0.012w      1 calls
DFH: initialize()                   :      0.583u      0.050s      0.384w      1 calls
| DFH: AO Construction              :      0.250u      0.000s      0.155w      1 calls
| DFH: AO-Met. Contraction          :      0.050u      0.017s      0.045w      1 calls
HF: Form core H                     :      0.000u      0.000s      0.002w      1 calls
HF: Form S/X                        :      0.000u      0.000s      0.000w      1 calls
HF: Guess                           :      0.267u      0.000s      0.153w      1 calls
| SAD Guess                         :      0.250u      0.000s      0.146w      1 calls
HF: Form G                          :      8.133u      0.100s      4.968w     14 calls
| RV: Form V                        :      8.117u      0.100s      4.948w     14 calls
| | Properties                      :      1.933u      0.017s      1.136w  41888 calls
| | Functional                      :      4.083u      0.067s      2.444w  41888 calls
| | V_xc                            :      1.983u      0.017s      1.307w  41888 calls
| JK: D                             :      0.000u      0.000s      0.000w     14 calls
| JK: USO2AO                        :      0.000u      0.000s      0.000w     14 calls
| JK: JK                            :      0.017u      0.000s      0.019w     14 calls
| | DFH: compute_JK()               :      0.017u      0.000s      0.019w     14 calls
| | | DFH: Grabbing AOs             :      0.000u      0.000s      0.000w     14 calls
| | | DFH: compute_J                :      0.017u      0.000s      0.019w     14 calls
| JK: AO2USO                        :      0.000u      0.000s      0.000w     14 calls
HF: Form F                          :      0.000u      0.000s      0.000w     14 calls
HF: Form D                          :      0.000u      0.000s      0.000w     14 calls
HF: DIIS                            :      0.000u      0.000s      0.015w     13 calls
| DIISManager::add_entry            :      0.000u      0.000s      0.001w     13 calls
| DIISManager::extrapolate          :      0.000u      0.000s      0.011w     13 calls
| | bMatrix setup                   :      0.000u      0.000s      0.010w     13 calls
| | bMatrix pseudoinverse           :      0.000u      0.000s      0.000w     13 calls
| | New vector                      :      0.000u      0.000s      0.000w     13 calls
HF: Form C                          :      0.033u      0.000s      0.003w     13 calls
Grad: V T Perturb                   :      0.083u      0.000s      0.053w      1 calls
Grad: S                             :      0.017u      0.000s      0.001w      1 calls
Grad: JK                            :      1.833u      0.000s      1.115w      1 calls
| JKGrad: Amn                       :      0.283u      0.000s      0.171w      1 calls
| JKGrad: Awmn                      :      0.000u      0.000s      0.000w      1 calls
| JKGrad: AB                        :      0.267u      0.000s      0.164w      1 calls
| JKGrad: UV                        :      0.000u      0.000s      0.000w      1 calls
| JKGrad: ABx                       :      0.133u      0.000s      0.073w      1 calls
| JKGrad: Amnx                      :      1.133u      0.000s      0.685w      1 calls
Grad: XC                            :      1.367u      0.000s      0.817w      1 calls
| Properties                        :      0.600u      0.000s      0.344w   2992 calls
| Functional                        :      0.267u      0.000s      0.174w   2992 calls
| V_xc gradient                     :      0.500u      0.000s      0.293w   2992 calls

**************************************************************************************

Host: aaojha

Timers On : Fri May 14 10:16:34 2021
Timers Off: Fri May 14 10:16:44 2021

Wall Time:        9.34 seconds

                                                       Time (seconds)
Module                                       User      System        Wall        Calls
V: Grid                             :      1.200u      0.000s      0.723w      1 calls
DFH: sparsity prep                  :      0.033u      0.000s      0.012w      1 calls
DFH: initialize()                   :      0.633u      0.033s      0.387w      1 calls
DFH: AO Construction                :      0.267u      0.000s      0.157w      1 calls
DFH: AO-Met. Contraction            :      0.067u      0.017s      0.045w      1 calls
HF: Form core H                     :      0.000u      0.000s      0.002w      1 calls
HF: Form S/X                        :      0.000u      0.000s      0.000w      1 calls
HF: Guess                           :      0.250u      0.017s      0.153w      1 calls
SAD Guess                           :      0.233u      0.017s      0.146w      1 calls
HF: Form G                          :      8.083u      0.133s      4.935w     14 calls
RV: Form V                          :      8.067u      0.133s      4.915w     14 calls
Properties                          :      2.467u      0.017s      1.481w  44745 calls
Functional                          :      4.183u      0.100s      2.597w  44745 calls
V_xc                                :      2.117u      0.017s      1.301w  41762 calls
JK: D                               :      0.000u      0.000s      0.000w     14 calls
JK: USO2AO                          :      0.000u      0.000s      0.000w     14 calls
JK: JK                              :      0.017u      0.000s      0.019w     14 calls
DFH: compute_JK()                   :      0.017u      0.000s      0.019w     14 calls
DFH: Grabbing AOs                   :      0.000u      0.000s      0.000w     14 calls
DFH: compute_J                      :      0.017u      0.000s      0.019w     14 calls
JK: AO2USO                          :      0.000u      0.000s      0.000w     14 calls
HF: Form F                          :      0.000u      0.000s      0.000w     14 calls
HF: Form D                          :      0.000u      0.000s      0.000w     14 calls
HF: DIIS                            :      0.033u      0.000s      0.006w     13 calls
DIISManager::add_entry              :      0.000u      0.000s      0.001w     13 calls
DIISManager::extrapolate            :      0.000u      0.000s      0.002w     13 calls
bMatrix setup                       :      0.000u      0.000s      0.001w     13 calls
bMatrix pseudoinverse               :      0.000u      0.000s      0.000w     13 calls
New vector                          :      0.000u      0.000s      0.000w     13 calls
HF: Form C                          :      0.000u      0.000s      0.003w     13 calls
Grad: V T Perturb                   :      0.083u      0.000s      0.053w      1 calls
Grad: S                             :      0.000u      0.000s      0.001w      1 calls
Grad: JK                            :      1.833u      0.000s      1.111w      1 calls
JKGrad: Amn                         :      0.283u      0.000s      0.171w      1 calls
JKGrad: Awmn                        :      0.000u      0.000s      0.000w      1 calls
JKGrad: AB                          :      0.283u      0.000s      0.164w      1 calls
JKGrad: UV                          :      0.000u      0.000s      0.000w      1 calls
JKGrad: ABx                         :      0.117u      0.000s      0.074w      1 calls
JKGrad: Amnx                        :      1.133u      0.000s      0.680w      1 calls
Grad: XC                            :      1.367u      0.000s      0.822w      1 calls
V_xc gradient                       :      0.467u      0.000s      0.296w   2983 calls

--------------------------------------------------------------------------------------
V: Grid                             :      1.200u      0.000s      0.723w      1 calls
DFH: sparsity prep                  :      0.033u      0.000s      0.012w      1 calls
DFH: initialize()                   :      0.633u      0.033s      0.387w      1 calls
| DFH: AO Construction              :      0.267u      0.000s      0.157w      1 calls
| DFH: AO-Met. Contraction          :      0.067u      0.017s      0.045w      1 calls
HF: Form core H                     :      0.000u      0.000s      0.002w      1 calls
HF: Form S/X                        :      0.000u      0.000s      0.000w      1 calls
HF: Guess                           :      0.250u      0.017s      0.153w      1 calls
| SAD Guess                         :      0.233u      0.017s      0.146w      1 calls
HF: Form G                          :      8.083u      0.133s      4.935w     14 calls
| RV: Form V                        :      8.067u      0.133s      4.915w     14 calls
| | Properties                      :      1.850u      0.017s      1.134w  41762 calls
| | Functional                      :      3.917u      0.100s      2.422w  41762 calls
| | V_xc                            :      2.117u      0.017s      1.301w  41762 calls
| JK: D                             :      0.000u      0.000s      0.000w     14 calls
| JK: USO2AO                        :      0.000u      0.000s      0.000w     14 calls
| JK: JK                            :      0.017u      0.000s      0.019w     14 calls
| | DFH: compute_JK()               :      0.017u      0.000s      0.019w     14 calls
| | | DFH: Grabbing AOs             :      0.000u      0.000s      0.000w     14 calls
| | | DFH: compute_J                :      0.017u      0.000s      0.019w     14 calls
| JK: AO2USO                        :      0.000u      0.000s      0.000w     14 calls
HF: Form F                          :      0.000u      0.000s      0.000w     14 calls
HF: Form D                          :      0.000u      0.000s      0.000w     14 calls
HF: DIIS                            :      0.033u      0.000s      0.006w     13 calls
| DIISManager::add_entry            :      0.000u      0.000s      0.001w     13 calls
| DIISManager::extrapolate          :      0.000u      0.000s      0.002w     13 calls
| | bMatrix setup                   :      0.000u      0.000s      0.001w     13 calls
| | bMatrix pseudoinverse           :      0.000u      0.000s      0.000w     13 calls
| | New vector                      :      0.000u      0.000s      0.000w     13 calls
HF: Form C                          :      0.000u      0.000s      0.003w     13 calls
Grad: V T Perturb                   :      0.083u      0.000s      0.053w      1 calls
Grad: S                             :      0.000u      0.000s      0.001w      1 calls
Grad: JK                            :      1.833u      0.000s      1.111w      1 calls
| JKGrad: Amn                       :      0.283u      0.000s      0.171w      1 calls
| JKGrad: Awmn                      :      0.000u      0.000s      0.000w      1 calls
| JKGrad: AB                        :      0.283u      0.000s      0.164w      1 calls
| JKGrad: UV                        :      0.000u      0.000s      0.000w      1 calls
| JKGrad: ABx                       :      0.117u      0.000s      0.074w      1 calls
| JKGrad: Amnx                      :      1.133u      0.000s      0.680w      1 calls
Grad: XC                            :      1.367u      0.000s      0.822w      1 calls
| Properties                        :      0.617u      0.000s      0.347w   2983 calls
| Functional                        :      0.267u      0.000s      0.175w   2983 calls
| V_xc gradient                     :      0.467u      0.000s      0.296w   2983 calls

**************************************************************************************

Host: aaojha

Timers On : Fri May 14 10:16:44 2021
Timers Off: Fri May 14 10:16:53 2021

Wall Time:        9.44 seconds

                                                       Time (seconds)
Module                                       User      System        Wall        Calls
V: Grid                             :      1.217u      0.017s      0.744w      1 calls
DFH: sparsity prep                  :      0.017u      0.000s      0.012w      1 calls
DFH: initialize()                   :      0.600u      0.033s      0.385w      1 calls
DFH: AO Construction                :      0.267u      0.000s      0.156w      1 calls
DFH: AO-Met. Contraction            :      0.050u      0.017s      0.046w      1 calls
HF: Form core H                     :      0.000u      0.000s      0.002w      1 calls
HF: Form S/X                        :      0.000u      0.000s      0.000w      1 calls
HF: Guess                           :      0.250u      0.000s      0.153w      1 calls
SAD Guess                           :      0.233u      0.000s      0.146w      1 calls
HF: Form G                          :      8.150u      0.133s      4.950w     14 calls
RV: Form V                          :      8.117u      0.133s      4.930w     14 calls
Properties                          :      2.350u      0.050s      1.476w  44865 calls
Functional                          :      4.450u      0.083s      2.608w  44865 calls
V_xc                                :      1.983u      0.017s      1.307w  41874 calls
JK: D                               :      0.000u      0.000s      0.000w     14 calls
JK: USO2AO                          :      0.000u      0.000s      0.000w     14 calls
JK: JK                              :      0.033u      0.000s      0.019w     14 calls
DFH: compute_JK()                   :      0.033u      0.000s      0.019w     14 calls
DFH: Grabbing AOs                   :      0.000u      0.000s      0.000w     14 calls
DFH: compute_J                      :      0.017u      0.000s      0.019w     14 calls
JK: AO2USO                          :      0.000u      0.000s      0.000w     14 calls
HF: Form F                          :      0.000u      0.000s      0.000w     14 calls
HF: Form D                          :      0.000u      0.000s      0.000w     14 calls
HF: DIIS                            :      0.000u      0.000s      0.015w     13 calls
DIISManager::add_entry              :      0.000u      0.000s      0.010w     13 calls
DIISManager::extrapolate            :      0.000u      0.000s      0.001w     13 calls
bMatrix setup                       :      0.000u      0.000s      0.001w     13 calls
bMatrix pseudoinverse               :      0.000u      0.000s      0.000w     13 calls
New vector                          :      0.000u      0.000s      0.000w     13 calls
HF: Form C                          :      0.000u      0.000s      0.003w     13 calls
Grad: V T Perturb                   :      0.083u      0.000s      0.052w      1 calls
Grad: S                             :      0.000u      0.000s      0.001w      1 calls
Grad: JK                            :      1.883u      0.000s      1.152w      1 calls
JKGrad: Amn                         :      0.317u      0.000s      0.186w      1 calls
JKGrad: Awmn                        :      0.000u      0.000s      0.000w      1 calls
JKGrad: AB                          :      0.267u      0.000s      0.166w      1 calls
JKGrad: UV                          :      0.000u      0.000s      0.000w      1 calls
JKGrad: ABx                         :      0.133u      0.000s      0.074w      1 calls
JKGrad: Amnx                        :      1.150u      0.000s      0.693w      1 calls
Grad: XC                            :      1.350u      0.017s      0.819w      1 calls
V_xc gradient                       :      0.500u      0.000s      0.294w   2991 calls

--------------------------------------------------------------------------------------
V: Grid                             :      1.217u      0.017s      0.744w      1 calls
DFH: sparsity prep                  :      0.017u      0.000s      0.012w      1 calls
DFH: initialize()                   :      0.600u      0.033s      0.385w      1 calls
| DFH: AO Construction              :      0.267u      0.000s      0.156w      1 calls
| DFH: AO-Met. Contraction          :      0.050u      0.017s      0.046w      1 calls
HF: Form core H                     :      0.000u      0.000s      0.002w      1 calls
HF: Form S/X                        :      0.000u      0.000s      0.000w      1 calls
HF: Guess                           :      0.250u      0.000s      0.153w      1 calls
| SAD Guess                         :      0.233u      0.000s      0.146w      1 calls
HF: Form G                          :      8.150u      0.133s      4.950w     14 calls
| RV: Form V                        :      8.117u      0.133s      4.930w     14 calls
| | Properties                      :      1.767u      0.033s      1.129w  41874 calls
| | Functional                      :      4.200u      0.083s      2.435w  41874 calls
| | V_xc                            :      1.983u      0.017s      1.307w  41874 calls
| JK: D                             :      0.000u      0.000s      0.000w     14 calls
| JK: USO2AO                        :      0.000u      0.000s      0.000w     14 calls
| JK: JK                            :      0.033u      0.000s      0.019w     14 calls
| | DFH: compute_JK()               :      0.033u      0.000s      0.019w     14 calls
| | | DFH: Grabbing AOs             :      0.000u      0.000s      0.000w     14 calls
| | | DFH: compute_J                :      0.017u      0.000s      0.019w     14 calls
| JK: AO2USO                        :      0.000u      0.000s      0.000w     14 calls
HF: Form F                          :      0.000u      0.000s      0.000w     14 calls
HF: Form D                          :      0.000u      0.000s      0.000w     14 calls
HF: DIIS                            :      0.000u      0.000s      0.015w     13 calls
| DIISManager::add_entry            :      0.000u      0.000s      0.010w     13 calls
| DIISManager::extrapolate          :      0.000u      0.000s      0.001w     13 calls
| | bMatrix setup                   :      0.000u      0.000s      0.001w     13 calls
| | bMatrix pseudoinverse           :      0.000u      0.000s      0.000w     13 calls
| | New vector                      :      0.000u      0.000s      0.000w     13 calls
HF: Form C                          :      0.000u      0.000s      0.003w     13 calls
Grad: V T Perturb                   :      0.083u      0.000s      0.052w      1 calls
Grad: S                             :      0.000u      0.000s      0.001w      1 calls
Grad: JK                            :      1.883u      0.000s      1.152w      1 calls
| JKGrad: Amn                       :      0.317u      0.000s      0.186w      1 calls
| JKGrad: Awmn                      :      0.000u      0.000s      0.000w      1 calls
| JKGrad: AB                        :      0.267u      0.000s      0.166w      1 calls
| JKGrad: UV                        :      0.000u      0.000s      0.000w      1 calls
| JKGrad: ABx                       :      0.133u      0.000s      0.074w      1 calls
| JKGrad: Amnx                      :      1.150u      0.000s      0.693w      1 calls
Grad: XC                            :      1.350u      0.017s      0.819w      1 calls
| Properties                        :      0.583u      0.017s      0.346w   2991 calls
| Functional                        :      0.250u      0.000s      0.174w   2991 calls
| V_xc gradient                     :      0.500u      0.000s      0.294w   2991 calls

**************************************************************************************
