
Host: aaojha

Timers On : Fri May 14 10:05:42 2021
Timers Off: Fri May 14 10:05:51 2021

Wall Time:        9.35 seconds

                                                       Time (seconds)
Module                                       User      System        Wall        Calls
V: Grid                             :      1.217u      0.033s      0.746w      1 calls
DFH: sparsity prep                  :      0.017u      0.000s      0.012w      1 calls
DFH: initialize()                   :      0.633u      0.017s      0.387w      1 calls
DFH: AO Construction                :      0.267u      0.000s      0.157w      1 calls
DFH: AO-Met. Contraction            :      0.067u      0.000s      0.045w      1 calls
HF: Form core H                     :      0.000u      0.000s      0.002w      1 calls
HF: Form S/X                        :      0.000u      0.000s      0.000w      1 calls
HF: Guess                           :      0.267u      0.000s      0.154w      1 calls
SAD Guess                           :      0.250u      0.000s      0.147w      1 calls
HF: Form G                          :      8.083u      0.133s      4.948w     14 calls
RV: Form V                          :      8.050u      0.133s      4.928w     14 calls
Properties                          :      2.267u      0.033s      1.488w  44955 calls
Functional                          :      4.333u      0.067s      2.602w  44955 calls
V_xc                                :      2.183u      0.033s      1.299w  41958 calls
JK: D                               :      0.000u      0.000s      0.000w     14 calls
JK: USO2AO                          :      0.000u      0.000s      0.000w     14 calls
JK: JK                              :      0.033u      0.000s      0.019w     14 calls
DFH: compute_JK()                   :      0.033u      0.000s      0.019w     14 calls
DFH: Grabbing AOs                   :      0.000u      0.000s      0.000w     14 calls
DFH: compute_J                      :      0.033u      0.000s      0.019w     14 calls
JK: AO2USO                          :      0.000u      0.000s      0.000w     14 calls
HF: Form F                          :      0.000u      0.000s      0.000w     14 calls
HF: Form D                          :      0.000u      0.000s      0.000w     14 calls
HF: DIIS                            :      0.033u      0.000s      0.015w     13 calls
DIISManager::add_entry              :      0.000u      0.000s      0.001w     13 calls
DIISManager::extrapolate            :      0.000u      0.000s      0.011w     13 calls
bMatrix setup                       :      0.000u      0.000s      0.010w     13 calls
bMatrix pseudoinverse               :      0.000u      0.000s      0.000w     13 calls
New vector                          :      0.000u      0.000s      0.000w     13 calls
HF: Form C                          :      0.000u      0.000s      0.003w     13 calls
Grad: V T Perturb                   :      0.083u      0.000s      0.051w      1 calls
Grad: S                             :      0.000u      0.000s      0.001w      1 calls
Grad: JK                            :      1.850u      0.000s      1.116w      1 calls
JKGrad: Amn                         :      0.283u      0.000s      0.172w      1 calls
JKGrad: Awmn                        :      0.000u      0.000s      0.000w      1 calls
JKGrad: AB                          :      0.267u      0.000s      0.164w      1 calls
JKGrad: UV                          :      0.000u      0.000s      0.000w      1 calls
JKGrad: ABx                         :      0.117u      0.000s      0.073w      1 calls
JKGrad: Amnx                        :      1.150u      0.000s      0.684w      1 calls
Grad: XC                            :      1.367u      0.000s      0.823w      1 calls
V_xc gradient                       :      0.450u      0.000s      0.298w   2997 calls

--------------------------------------------------------------------------------------
V: Grid                             :      1.217u      0.033s      0.746w      1 calls
DFH: sparsity prep                  :      0.017u      0.000s      0.012w      1 calls
DFH: initialize()                   :      0.633u      0.017s      0.387w      1 calls
| DFH: AO Construction              :      0.267u      0.000s      0.157w      1 calls
| DFH: AO-Met. Contraction          :      0.067u      0.000s      0.045w      1 calls
HF: Form core H                     :      0.000u      0.000s      0.002w      1 calls
HF: Form S/X                        :      0.000u      0.000s      0.000w      1 calls
HF: Guess                           :      0.267u      0.000s      0.154w      1 calls
| SAD Guess                         :      0.250u      0.000s      0.147w      1 calls
HF: Form G                          :      8.083u      0.133s      4.948w     14 calls
| RV: Form V                        :      8.050u      0.133s      4.928w     14 calls
| | Properties                      :      1.700u      0.033s      1.141w  41958 calls
| | Functional                      :      4.033u      0.067s      2.428w  41958 calls
| | V_xc                            :      2.183u      0.033s      1.299w  41958 calls
| JK: D                             :      0.000u      0.000s      0.000w     14 calls
| JK: USO2AO                        :      0.000u      0.000s      0.000w     14 calls
| JK: JK                            :      0.033u      0.000s      0.019w     14 calls
| | DFH: compute_JK()               :      0.033u      0.000s      0.019w     14 calls
| | | DFH: Grabbing AOs             :      0.000u      0.000s      0.000w     14 calls
| | | DFH: compute_J                :      0.033u      0.000s      0.019w     14 calls
| JK: AO2USO                        :      0.000u      0.000s      0.000w     14 calls
HF: Form F                          :      0.000u      0.000s      0.000w     14 calls
HF: Form D                          :      0.000u      0.000s      0.000w     14 calls
HF: DIIS                            :      0.033u      0.000s      0.015w     13 calls
| DIISManager::add_entry            :      0.000u      0.000s      0.001w     13 calls
| DIISManager::extrapolate          :      0.000u      0.000s      0.011w     13 calls
| | bMatrix setup                   :      0.000u      0.000s      0.010w     13 calls
| | bMatrix pseudoinverse           :      0.000u      0.000s      0.000w     13 calls
| | New vector                      :      0.000u      0.000s      0.000w     13 calls
HF: Form C                          :      0.000u      0.000s      0.003w     13 calls
Grad: V T Perturb                   :      0.083u      0.000s      0.051w      1 calls
Grad: S                             :      0.000u      0.000s      0.001w      1 calls
Grad: JK                            :      1.850u      0.000s      1.116w      1 calls
| JKGrad: Amn                       :      0.283u      0.000s      0.172w      1 calls
| JKGrad: Awmn                      :      0.000u      0.000s      0.000w      1 calls
| JKGrad: AB                        :      0.267u      0.000s      0.164w      1 calls
| JKGrad: UV                        :      0.000u      0.000s      0.000w      1 calls
| JKGrad: ABx                       :      0.117u      0.000s      0.073w      1 calls
| JKGrad: Amnx                      :      1.150u      0.000s      0.684w      1 calls
Grad: XC                            :      1.367u      0.000s      0.823w      1 calls
| Properties                        :      0.567u      0.000s      0.346w   2997 calls
| Functional                        :      0.300u      0.000s      0.175w   2997 calls
| V_xc gradient                     :      0.450u      0.000s      0.298w   2997 calls

**************************************************************************************

Host: aaojha

Timers On : Fri May 14 10:05:51 2021
Timers Off: Fri May 14 10:06:01 2021

Wall Time:        9.30 seconds

                                                       Time (seconds)
Module                                       User      System        Wall        Calls
V: Grid                             :      1.200u      0.017s      0.731w      1 calls
DFH: sparsity prep                  :      0.017u      0.000s      0.012w      1 calls
DFH: initialize()                   :      0.617u      0.033s      0.385w      1 calls
DFH: AO Construction                :      0.267u      0.000s      0.155w      1 calls
DFH: AO-Met. Contraction            :      0.067u      0.000s      0.045w      1 calls
HF: Form core H                     :      0.000u      0.000s      0.002w      1 calls
HF: Form S/X                        :      0.000u      0.000s      0.000w      1 calls
HF: Guess                           :      0.267u      0.000s      0.153w      1 calls
SAD Guess                           :      0.250u      0.000s      0.146w      1 calls
HF: Form G                          :      7.983u      0.167s      4.887w     14 calls
RV: Form V                          :      7.950u      0.167s      4.867w     14 calls
Properties                          :      2.467u      0.067s      1.468w  44505 calls
Functional                          :      4.267u      0.083s      2.569w  44505 calls
V_xc                                :      2.133u      0.017s      1.289w  41538 calls
JK: D                               :      0.000u      0.000s      0.000w     14 calls
JK: USO2AO                          :      0.000u      0.000s      0.000w     14 calls
JK: JK                              :      0.033u      0.000s      0.019w     14 calls
DFH: compute_JK()                   :      0.033u      0.000s      0.019w     14 calls
DFH: Grabbing AOs                   :      0.000u      0.000s      0.000w     14 calls
DFH: compute_J                      :      0.033u      0.000s      0.019w     14 calls
JK: AO2USO                          :      0.000u      0.000s      0.000w     14 calls
HF: Form F                          :      0.000u      0.000s      0.000w     14 calls
HF: Form D                          :      0.000u      0.000s      0.000w     14 calls
HF: DIIS                            :      0.017u      0.000s      0.015w     13 calls
DIISManager::add_entry              :      0.000u      0.000s      0.001w     13 calls
DIISManager::extrapolate            :      0.000u      0.000s      0.011w     13 calls
bMatrix setup                       :      0.000u      0.000s      0.010w     13 calls
bMatrix pseudoinverse               :      0.000u      0.000s      0.000w     13 calls
New vector                          :      0.000u      0.000s      0.000w     13 calls
HF: Form C                          :      0.000u      0.000s      0.003w     13 calls
Grad: V T Perturb                   :      0.100u      0.000s      0.051w      1 calls
Grad: S                             :      0.000u      0.000s      0.001w      1 calls
Grad: JK                            :      1.833u      0.000s      1.112w      1 calls
JKGrad: Amn                         :      0.283u      0.000s      0.170w      1 calls
JKGrad: Awmn                        :      0.000u      0.000s      0.000w      1 calls
JKGrad: AB                          :      0.267u      0.000s      0.164w      1 calls
JKGrad: UV                          :      0.000u      0.000s      0.000w      1 calls
JKGrad: ABx                         :      0.133u      0.000s      0.073w      1 calls
JKGrad: Amnx                        :      1.133u      0.000s      0.683w      1 calls
Grad: XC                            :      1.350u      0.000s      0.817w      1 calls
V_xc gradient                       :      0.400u      0.000s      0.296w   2967 calls

--------------------------------------------------------------------------------------
V: Grid                             :      1.200u      0.017s      0.731w      1 calls
DFH: sparsity prep                  :      0.017u      0.000s      0.012w      1 calls
DFH: initialize()                   :      0.617u      0.033s      0.385w      1 calls
| DFH: AO Construction              :      0.267u      0.000s      0.155w      1 calls
| DFH: AO-Met. Contraction          :      0.067u      0.000s      0.045w      1 calls
HF: Form core H                     :      0.000u      0.000s      0.002w      1 calls
HF: Form S/X                        :      0.000u      0.000s      0.000w      1 calls
HF: Guess                           :      0.267u      0.000s      0.153w      1 calls
| SAD Guess                         :      0.250u      0.000s      0.146w      1 calls
HF: Form G                          :      7.983u      0.167s      4.887w     14 calls
| RV: Form V                        :      7.950u      0.167s      4.867w     14 calls
| | Properties                      :      1.833u      0.067s      1.124w  41538 calls
| | Functional                      :      3.950u      0.083s      2.396w  41538 calls
| | V_xc                            :      2.133u      0.017s      1.289w  41538 calls
| JK: D                             :      0.000u      0.000s      0.000w     14 calls
| JK: USO2AO                        :      0.000u      0.000s      0.000w     14 calls
| JK: JK                            :      0.033u      0.000s      0.019w     14 calls
| | DFH: compute_JK()               :      0.033u      0.000s      0.019w     14 calls
| | | DFH: Grabbing AOs             :      0.000u      0.000s      0.000w     14 calls
| | | DFH: compute_J                :      0.033u      0.000s      0.019w     14 calls
| JK: AO2USO                        :      0.000u      0.000s      0.000w     14 calls
HF: Form F                          :      0.000u      0.000s      0.000w     14 calls
HF: Form D                          :      0.000u      0.000s      0.000w     14 calls
HF: DIIS                            :      0.017u      0.000s      0.015w     13 calls
| DIISManager::add_entry            :      0.000u      0.000s      0.001w     13 calls
| DIISManager::extrapolate          :      0.000u      0.000s      0.011w     13 calls
| | bMatrix setup                   :      0.000u      0.000s      0.010w     13 calls
| | bMatrix pseudoinverse           :      0.000u      0.000s      0.000w     13 calls
| | New vector                      :      0.000u      0.000s      0.000w     13 calls
HF: Form C                          :      0.000u      0.000s      0.003w     13 calls
Grad: V T Perturb                   :      0.100u      0.000s      0.051w      1 calls
Grad: S                             :      0.000u      0.000s      0.001w      1 calls
Grad: JK                            :      1.833u      0.000s      1.112w      1 calls
| JKGrad: Amn                       :      0.283u      0.000s      0.170w      1 calls
| JKGrad: Awmn                      :      0.000u      0.000s      0.000w      1 calls
| JKGrad: AB                        :      0.267u      0.000s      0.164w      1 calls
| JKGrad: UV                        :      0.000u      0.000s      0.000w      1 calls
| JKGrad: ABx                       :      0.133u      0.000s      0.073w      1 calls
| JKGrad: Amnx                      :      1.133u      0.000s      0.683w      1 calls
Grad: XC                            :      1.350u      0.000s      0.817w      1 calls
| Properties                        :      0.633u      0.000s      0.344w   2967 calls
| Functional                        :      0.317u      0.000s      0.173w   2967 calls
| V_xc gradient                     :      0.400u      0.000s      0.296w   2967 calls

**************************************************************************************

Host: aaojha

Timers On : Fri May 14 10:06:01 2021
Timers Off: Fri May 14 10:06:10 2021

Wall Time:        9.68 seconds

                                                       Time (seconds)
Module                                       User      System        Wall        Calls
V: Grid                             :      1.183u      0.033s      0.734w      1 calls
DFH: sparsity prep                  :      0.033u      0.000s      0.013w      1 calls
DFH: initialize()                   :      0.617u      0.033s      0.387w      1 calls
DFH: AO Construction                :      0.267u      0.000s      0.156w      1 calls
DFH: AO-Met. Contraction            :      0.067u      0.000s      0.046w      1 calls
HF: Form core H                     :      0.000u      0.000s      0.002w      1 calls
HF: Form S/X                        :      0.000u      0.000s      0.000w      1 calls
HF: Guess                           :      0.250u      0.000s      0.153w      1 calls
SAD Guess                           :      0.233u      0.000s      0.146w      1 calls
HF: Form G                          :      8.717u      0.117s      5.281w     15 calls
RV: Form V                          :      8.683u      0.117s      5.259w     15 calls
Properties                          :      2.617u      0.050s      1.549w  47680 calls
Functional                          :      4.717u      0.050s      2.773w  47680 calls
V_xc                                :      2.133u      0.033s      1.392w  44700 calls
JK: D                               :      0.000u      0.000s      0.000w     15 calls
JK: USO2AO                          :      0.000u      0.000s      0.000w     15 calls
JK: JK                              :      0.033u      0.000s      0.021w     15 calls
DFH: compute_JK()                   :      0.033u      0.000s      0.021w     15 calls
DFH: Grabbing AOs                   :      0.000u      0.000s      0.000w     15 calls
DFH: compute_J                      :      0.033u      0.000s      0.020w     15 calls
JK: AO2USO                          :      0.000u      0.000s      0.000w     15 calls
HF: Form F                          :      0.000u      0.000s      0.000w     15 calls
HF: Form D                          :      0.000u      0.000s      0.000w     15 calls
HF: DIIS                            :      0.000u      0.000s      0.006w     14 calls
DIISManager::add_entry              :      0.000u      0.000s      0.001w     14 calls
DIISManager::extrapolate            :      0.000u      0.000s      0.002w     14 calls
bMatrix setup                       :      0.000u      0.000s      0.001w     14 calls
bMatrix pseudoinverse               :      0.000u      0.000s      0.000w     14 calls
New vector                          :      0.000u      0.000s      0.000w     14 calls
HF: Form C                          :      0.000u      0.000s      0.003w     14 calls
Grad: V T Perturb                   :      0.083u      0.000s      0.051w      1 calls
Grad: S                             :      0.000u      0.000s      0.001w      1 calls
Grad: JK                            :      1.850u      0.000s      1.116w      1 calls
JKGrad: Amn                         :      0.300u      0.000s      0.174w      1 calls
JKGrad: Awmn                        :      0.000u      0.000s      0.000w      1 calls
JKGrad: AB                          :      0.267u      0.000s      0.164w      1 calls
JKGrad: UV                          :      0.000u      0.000s      0.000w      1 calls
JKGrad: ABx                         :      0.117u      0.000s      0.074w      1 calls
JKGrad: Amnx                        :      1.150u      0.000s      0.682w      1 calls
Grad: XC                            :      1.350u      0.017s      0.816w      1 calls
V_xc gradient                       :      0.417u      0.000s      0.293w   2980 calls

--------------------------------------------------------------------------------------
V: Grid                             :      1.183u      0.033s      0.734w      1 calls
DFH: sparsity prep                  :      0.033u      0.000s      0.013w      1 calls
DFH: initialize()                   :      0.617u      0.033s      0.387w      1 calls
| DFH: AO Construction              :      0.267u      0.000s      0.156w      1 calls
| DFH: AO-Met. Contraction          :      0.067u      0.000s      0.046w      1 calls
HF: Form core H                     :      0.000u      0.000s      0.002w      1 calls
HF: Form S/X                        :      0.000u      0.000s      0.000w      1 calls
HF: Guess                           :      0.250u      0.000s      0.153w      1 calls
| SAD Guess                         :      0.233u      0.000s      0.146w      1 calls
HF: Form G                          :      8.717u      0.117s      5.281w     15 calls
| RV: Form V                        :      8.683u      0.117s      5.259w     15 calls
| | Properties                      :      2.117u      0.033s      1.205w  44700 calls
| | Functional                      :      4.300u      0.050s      2.599w  44700 calls
| | V_xc                            :      2.133u      0.033s      1.392w  44700 calls
| JK: D                             :      0.000u      0.000s      0.000w     15 calls
| JK: USO2AO                        :      0.000u      0.000s      0.000w     15 calls
| JK: JK                            :      0.033u      0.000s      0.021w     15 calls
| | DFH: compute_JK()               :      0.033u      0.000s      0.021w     15 calls
| | | DFH: Grabbing AOs             :      0.000u      0.000s      0.000w     15 calls
| | | DFH: compute_J                :      0.033u      0.000s      0.020w     15 calls
| JK: AO2USO                        :      0.000u      0.000s      0.000w     15 calls
HF: Form F                          :      0.000u      0.000s      0.000w     15 calls
HF: Form D                          :      0.000u      0.000s      0.000w     15 calls
HF: DIIS                            :      0.000u      0.000s      0.006w     14 calls
| DIISManager::add_entry            :      0.000u      0.000s      0.001w     14 calls
| DIISManager::extrapolate          :      0.000u      0.000s      0.002w     14 calls
| | bMatrix setup                   :      0.000u      0.000s      0.001w     14 calls
| | bMatrix pseudoinverse           :      0.000u      0.000s      0.000w     14 calls
| | New vector                      :      0.000u      0.000s      0.000w     14 calls
HF: Form C                          :      0.000u      0.000s      0.003w     14 calls
Grad: V T Perturb                   :      0.083u      0.000s      0.051w      1 calls
Grad: S                             :      0.000u      0.000s      0.001w      1 calls
Grad: JK                            :      1.850u      0.000s      1.116w      1 calls
| JKGrad: Amn                       :      0.300u      0.000s      0.174w      1 calls
| JKGrad: Awmn                      :      0.000u      0.000s      0.000w      1 calls
| JKGrad: AB                        :      0.267u      0.000s      0.164w      1 calls
| JKGrad: UV                        :      0.000u      0.000s      0.000w      1 calls
| JKGrad: ABx                       :      0.117u      0.000s      0.074w      1 calls
| JKGrad: Amnx                      :      1.150u      0.000s      0.682w      1 calls
Grad: XC                            :      1.350u      0.017s      0.816w      1 calls
| Properties                        :      0.500u      0.017s      0.344w   2980 calls
| Functional                        :      0.417u      0.000s      0.174w   2980 calls
| V_xc gradient                     :      0.417u      0.000s      0.293w   2980 calls

**************************************************************************************

Host: aaojha

Timers On : Fri May 14 10:06:11 2021
Timers Off: Fri May 14 10:06:20 2021

Wall Time:        9.32 seconds

                                                       Time (seconds)
Module                                       User      System        Wall        Calls
V: Grid                             :      1.183u      0.033s      0.732w      1 calls
DFH: sparsity prep                  :      0.033u      0.000s      0.013w      1 calls
DFH: initialize()                   :      0.617u      0.017s      0.388w      1 calls
DFH: AO Construction                :      0.267u      0.000s      0.156w      1 calls
DFH: AO-Met. Contraction            :      0.067u      0.000s      0.045w      1 calls
HF: Form core H                     :      0.000u      0.000s      0.002w      1 calls
HF: Form S/X                        :      0.000u      0.000s      0.000w      1 calls
HF: Guess                           :      0.267u      0.000s      0.155w      1 calls
SAD Guess                           :      0.250u      0.000s      0.148w      1 calls
HF: Form G                          :      8.033u      0.117s      4.900w     14 calls
RV: Form V                          :      7.983u      0.117s      4.880w     14 calls
Properties                          :      2.150u      0.000s      1.479w  44430 calls
Functional                          :      4.250u      0.100s      2.576w  44430 calls
V_xc                                :      2.267u      0.017s      1.293w  41468 calls
JK: D                               :      0.000u      0.000s      0.000w     14 calls
JK: USO2AO                          :      0.000u      0.000s      0.000w     14 calls
JK: JK                              :      0.050u      0.000s      0.019w     14 calls
DFH: compute_JK()                   :      0.050u      0.000s      0.019w     14 calls
DFH: Grabbing AOs                   :      0.000u      0.000s      0.000w     14 calls
DFH: compute_J                      :      0.050u      0.000s      0.019w     14 calls
JK: AO2USO                          :      0.000u      0.000s      0.000w     14 calls
HF: Form F                          :      0.000u      0.000s      0.000w     14 calls
HF: Form D                          :      0.000u      0.000s      0.000w     14 calls
HF: DIIS                            :      0.000u      0.000s      0.006w     13 calls
DIISManager::add_entry              :      0.000u      0.000s      0.001w     13 calls
DIISManager::extrapolate            :      0.000u      0.000s      0.001w     13 calls
bMatrix setup                       :      0.000u      0.000s      0.001w     13 calls
bMatrix pseudoinverse               :      0.000u      0.000s      0.000w     13 calls
New vector                          :      0.000u      0.000s      0.000w     13 calls
HF: Form C                          :      0.017u      0.000s      0.003w     13 calls
Grad: V T Perturb                   :      0.083u      0.000s      0.052w      1 calls
Grad: S                             :      0.000u      0.000s      0.001w      1 calls
Grad: JK                            :      1.850u      0.000s      1.124w      1 calls
JKGrad: Amn                         :      0.283u      0.000s      0.171w      1 calls
JKGrad: Awmn                        :      0.000u      0.000s      0.000w      1 calls
JKGrad: AB                          :      0.283u      0.000s      0.165w      1 calls
JKGrad: UV                          :      0.000u      0.000s      0.000w      1 calls
JKGrad: ABx                         :      0.117u      0.000s      0.073w      1 calls
JKGrad: Amnx                        :      1.150u      0.000s      0.682w      1 calls
Grad: XC                            :      1.367u      0.000s      0.828w      1 calls
V_xc gradient                       :      0.567u      0.000s      0.298w   2962 calls

--------------------------------------------------------------------------------------
V: Grid                             :      1.183u      0.033s      0.732w      1 calls
DFH: sparsity prep                  :      0.033u      0.000s      0.013w      1 calls
DFH: initialize()                   :      0.617u      0.017s      0.388w      1 calls
| DFH: AO Construction              :      0.267u      0.000s      0.156w      1 calls
| DFH: AO-Met. Contraction          :      0.067u      0.000s      0.045w      1 calls
HF: Form core H                     :      0.000u      0.000s      0.002w      1 calls
HF: Form S/X                        :      0.000u      0.000s      0.000w      1 calls
HF: Guess                           :      0.267u      0.000s      0.155w      1 calls
| SAD Guess                         :      0.250u      0.000s      0.148w      1 calls
HF: Form G                          :      8.033u      0.117s      4.900w     14 calls
| RV: Form V                        :      7.983u      0.117s      4.880w     14 calls
| | Properties                      :      1.650u      0.000s      1.128w  41468 calls
| | Functional                      :      3.950u      0.100s      2.401w  41468 calls
| | V_xc                            :      2.267u      0.017s      1.293w  41468 calls
| JK: D                             :      0.000u      0.000s      0.000w     14 calls
| JK: USO2AO                        :      0.000u      0.000s      0.000w     14 calls
| JK: JK                            :      0.050u      0.000s      0.019w     14 calls
| | DFH: compute_JK()               :      0.050u      0.000s      0.019w     14 calls
| | | DFH: Grabbing AOs             :      0.000u      0.000s      0.000w     14 calls
| | | DFH: compute_J                :      0.050u      0.000s      0.019w     14 calls
| JK: AO2USO                        :      0.000u      0.000s      0.000w     14 calls
HF: Form F                          :      0.000u      0.000s      0.000w     14 calls
HF: Form D                          :      0.000u      0.000s      0.000w     14 calls
HF: DIIS                            :      0.000u      0.000s      0.006w     13 calls
| DIISManager::add_entry            :      0.000u      0.000s      0.001w     13 calls
| DIISManager::extrapolate          :      0.000u      0.000s      0.001w     13 calls
| | bMatrix setup                   :      0.000u      0.000s      0.001w     13 calls
| | bMatrix pseudoinverse           :      0.000u      0.000s      0.000w     13 calls
| | New vector                      :      0.000u      0.000s      0.000w     13 calls
HF: Form C                          :      0.017u      0.000s      0.003w     13 calls
Grad: V T Perturb                   :      0.083u      0.000s      0.052w      1 calls
Grad: S                             :      0.000u      0.000s      0.001w      1 calls
Grad: JK                            :      1.850u      0.000s      1.124w      1 calls
| JKGrad: Amn                       :      0.283u      0.000s      0.171w      1 calls
| JKGrad: Awmn                      :      0.000u      0.000s      0.000w      1 calls
| JKGrad: AB                        :      0.283u      0.000s      0.165w      1 calls
| JKGrad: UV                        :      0.000u      0.000s      0.000w      1 calls
| JKGrad: ABx                       :      0.117u      0.000s      0.073w      1 calls
| JKGrad: Amnx                      :      1.150u      0.000s      0.682w      1 calls
Grad: XC                            :      1.367u      0.000s      0.828w      1 calls
| Properties                        :      0.500u      0.000s      0.351w   2962 calls
| Functional                        :      0.300u      0.000s      0.175w   2962 calls
| V_xc gradient                     :      0.567u      0.000s      0.298w   2962 calls

**************************************************************************************

Host: aaojha

Timers On : Fri May 14 10:06:20 2021
Timers Off: Fri May 14 10:06:30 2021

Wall Time:        9.42 seconds

                                                       Time (seconds)
Module                                       User      System        Wall        Calls
V: Grid                             :      1.200u      0.033s      0.737w      1 calls
DFH: sparsity prep                  :      0.017u      0.000s      0.013w      1 calls
DFH: initialize()                   :      0.633u      0.033s      0.397w      1 calls
DFH: AO Construction                :      0.267u      0.000s      0.159w      1 calls
DFH: AO-Met. Contraction            :      0.067u      0.017s      0.047w      1 calls
HF: Form core H                     :      0.000u      0.000s      0.002w      1 calls
HF: Form S/X                        :      0.000u      0.000s      0.001w      1 calls
HF: Guess                           :      0.267u      0.017s      0.170w      1 calls
SAD Guess                           :      0.250u      0.017s      0.153w      1 calls
HF: Form G                          :      8.067u      0.150s      4.930w     14 calls
RV: Form V                          :      8.050u      0.150s      4.910w     14 calls
Properties                          :      2.700u      0.050s      1.468w  44340 calls
Functional                          :      4.033u      0.083s      2.600w  44340 calls
V_xc                                :      1.950u      0.033s      1.303w  41384 calls
JK: D                               :      0.000u      0.000s      0.000w     14 calls
JK: USO2AO                          :      0.000u      0.000s      0.000w     14 calls
JK: JK                              :      0.017u      0.000s      0.019w     14 calls
DFH: compute_JK()                   :      0.017u      0.000s      0.019w     14 calls
DFH: Grabbing AOs                   :      0.000u      0.000s      0.000w     14 calls
DFH: compute_J                      :      0.017u      0.000s      0.019w     14 calls
JK: AO2USO                          :      0.000u      0.000s      0.000w     14 calls
HF: Form F                          :      0.000u      0.000s      0.000w     14 calls
HF: Form D                          :      0.000u      0.000s      0.000w     14 calls
HF: DIIS                            :      0.000u      0.017s      0.006w     13 calls
DIISManager::add_entry              :      0.000u      0.000s      0.001w     13 calls
DIISManager::extrapolate            :      0.000u      0.000s      0.001w     13 calls
bMatrix setup                       :      0.000u      0.000s      0.001w     13 calls
bMatrix pseudoinverse               :      0.000u      0.000s      0.000w     13 calls
New vector                          :      0.000u      0.000s      0.000w     13 calls
HF: Form C                          :      0.000u      0.000s      0.003w     13 calls
Grad: V T Perturb                   :      0.083u      0.000s      0.052w      1 calls
Grad: S                             :      0.000u      0.000s      0.001w      1 calls
Grad: JK                            :      1.900u      0.000s      1.146w      1 calls
JKGrad: Amn                         :      0.283u      0.000s      0.175w      1 calls
JKGrad: Awmn                        :      0.000u      0.000s      0.000w      1 calls
JKGrad: AB                          :      0.283u      0.000s      0.171w      1 calls
JKGrad: UV                          :      0.000u      0.000s      0.000w      1 calls
JKGrad: ABx                         :      0.133u      0.000s      0.075w      1 calls
JKGrad: Amnx                        :      1.167u      0.000s      0.702w      1 calls
Grad: XC                            :      1.367u      0.017s      0.827w      1 calls
V_xc gradient                       :      0.517u      0.000s      0.298w   2956 calls

--------------------------------------------------------------------------------------
V: Grid                             :      1.200u      0.033s      0.737w      1 calls
DFH: sparsity prep                  :      0.017u      0.000s      0.013w      1 calls
DFH: initialize()                   :      0.633u      0.033s      0.397w      1 calls
| DFH: AO Construction              :      0.267u      0.000s      0.159w      1 calls
| DFH: AO-Met. Contraction          :      0.067u      0.017s      0.047w      1 calls
HF: Form core H                     :      0.000u      0.000s      0.002w      1 calls
HF: Form S/X                        :      0.000u      0.000s      0.001w      1 calls
HF: Guess                           :      0.267u      0.017s      0.170w      1 calls
| SAD Guess                         :      0.250u      0.017s      0.153w      1 calls
HF: Form G                          :      8.067u      0.150s      4.930w     14 calls
| RV: Form V                        :      8.050u      0.150s      4.910w     14 calls
| | Properties                      :      2.183u      0.033s      1.120w  41384 calls
| | Functional                      :      3.717u      0.083s      2.425w  41384 calls
| | V_xc                            :      1.950u      0.033s      1.303w  41384 calls
| JK: D                             :      0.000u      0.000s      0.000w     14 calls
| JK: USO2AO                        :      0.000u      0.000s      0.000w     14 calls
| JK: JK                            :      0.017u      0.000s      0.019w     14 calls
| | DFH: compute_JK()               :      0.017u      0.000s      0.019w     14 calls
| | | DFH: Grabbing AOs             :      0.000u      0.000s      0.000w     14 calls
| | | DFH: compute_J                :      0.017u      0.000s      0.019w     14 calls
| JK: AO2USO                        :      0.000u      0.000s      0.000w     14 calls
HF: Form F                          :      0.000u      0.000s      0.000w     14 calls
HF: Form D                          :      0.000u      0.000s      0.000w     14 calls
HF: DIIS                            :      0.000u      0.017s      0.006w     13 calls
| DIISManager::add_entry            :      0.000u      0.000s      0.001w     13 calls
| DIISManager::extrapolate          :      0.000u      0.000s      0.001w     13 calls
| | bMatrix setup                   :      0.000u      0.000s      0.001w     13 calls
| | bMatrix pseudoinverse           :      0.000u      0.000s      0.000w     13 calls
| | New vector                      :      0.000u      0.000s      0.000w     13 calls
HF: Form C                          :      0.000u      0.000s      0.003w     13 calls
Grad: V T Perturb                   :      0.083u      0.000s      0.052w      1 calls
Grad: S                             :      0.000u      0.000s      0.001w      1 calls
Grad: JK                            :      1.900u      0.000s      1.146w      1 calls
| JKGrad: Amn                       :      0.283u      0.000s      0.175w      1 calls
| JKGrad: Awmn                      :      0.000u      0.000s      0.000w      1 calls
| JKGrad: AB                        :      0.283u      0.000s      0.171w      1 calls
| JKGrad: UV                        :      0.000u      0.000s      0.000w      1 calls
| JKGrad: ABx                       :      0.133u      0.000s      0.075w      1 calls
| JKGrad: Amnx                      :      1.167u      0.000s      0.702w      1 calls
Grad: XC                            :      1.367u      0.017s      0.827w      1 calls
| Properties                        :      0.517u      0.017s      0.348w   2956 calls
| Functional                        :      0.317u      0.000s      0.176w   2956 calls
| V_xc gradient                     :      0.517u      0.000s      0.298w   2956 calls

**************************************************************************************

Host: aaojha

Timers On : Fri May 14 10:06:30 2021
Timers Off: Fri May 14 10:06:39 2021

Wall Time:        9.29 seconds

                                                       Time (seconds)
Module                                       User      System        Wall        Calls
V: Grid                             :      1.183u      0.017s      0.725w      1 calls
DFH: sparsity prep                  :      0.017u      0.000s      0.012w      1 calls
DFH: initialize()                   :      0.617u      0.033s      0.385w      1 calls
DFH: AO Construction                :      0.250u      0.000s      0.155w      1 calls
DFH: AO-Met. Contraction            :      0.067u      0.017s      0.045w      1 calls
HF: Form core H                     :      0.000u      0.000s      0.002w      1 calls
HF: Form S/X                        :      0.000u      0.000s      0.001w      1 calls
HF: Guess                           :      0.283u      0.000s      0.170w      1 calls
SAD Guess                           :      0.250u      0.000s      0.153w      1 calls
HF: Form G                          :      8.000u      0.133s      4.871w     14 calls
RV: Form V                          :      7.933u      0.133s      4.851w     14 calls
Properties                          :      2.383u      0.067s      1.466w  44100 calls
Functional                          :      4.167u      0.050s      2.563w  44100 calls
V_xc                                :      2.083u      0.017s      1.279w  41160 calls
JK: D                               :      0.000u      0.000s      0.000w     14 calls
JK: USO2AO                          :      0.000u      0.000s      0.000w     14 calls
JK: JK                              :      0.067u      0.000s      0.019w     14 calls
DFH: compute_JK()                   :      0.067u      0.000s      0.019w     14 calls
DFH: Grabbing AOs                   :      0.000u      0.000s      0.000w     14 calls
DFH: compute_J                      :      0.067u      0.000s      0.019w     14 calls
JK: AO2USO                          :      0.000u      0.000s      0.000w     14 calls
HF: Form F                          :      0.000u      0.000s      0.000w     14 calls
HF: Form D                          :      0.000u      0.000s      0.000w     14 calls
HF: DIIS                            :      0.000u      0.000s      0.016w     13 calls
DIISManager::add_entry              :      0.000u      0.000s      0.001w     13 calls
DIISManager::extrapolate            :      0.000u      0.000s      0.011w     13 calls
bMatrix setup                       :      0.000u      0.000s      0.010w     13 calls
bMatrix pseudoinverse               :      0.000u      0.000s      0.001w     13 calls
New vector                          :      0.000u      0.000s      0.000w     13 calls
HF: Form C                          :      0.000u      0.000s      0.003w     13 calls
Grad: V T Perturb                   :      0.083u      0.000s      0.050w      1 calls
Grad: S                             :      0.000u      0.000s      0.001w      1 calls
Grad: JK                            :      1.833u      0.000s      1.112w      1 calls
JKGrad: Amn                         :      0.300u      0.000s      0.172w      1 calls
JKGrad: Awmn                        :      0.000u      0.000s      0.000w      1 calls
JKGrad: AB                          :      0.267u      0.000s      0.164w      1 calls
JKGrad: UV                          :      0.000u      0.000s      0.000w      1 calls
JKGrad: ABx                         :      0.117u      0.000s      0.074w      1 calls
JKGrad: Amnx                        :      1.133u      0.000s      0.681w      1 calls
Grad: XC                            :      1.350u      0.000s      0.811w      1 calls
V_xc gradient                       :      0.483u      0.000s      0.291w   2940 calls

--------------------------------------------------------------------------------------
V: Grid                             :      1.183u      0.017s      0.725w      1 calls
DFH: sparsity prep                  :      0.017u      0.000s      0.012w      1 calls
DFH: initialize()                   :      0.617u      0.033s      0.385w      1 calls
| DFH: AO Construction              :      0.250u      0.000s      0.155w      1 calls
| DFH: AO-Met. Contraction          :      0.067u      0.017s      0.045w      1 calls
HF: Form core H                     :      0.000u      0.000s      0.002w      1 calls
HF: Form S/X                        :      0.000u      0.000s      0.001w      1 calls
HF: Guess                           :      0.283u      0.000s      0.170w      1 calls
| SAD Guess                         :      0.250u      0.000s      0.153w      1 calls
HF: Form G                          :      8.000u      0.133s      4.871w     14 calls
| RV: Form V                        :      7.933u      0.133s      4.851w     14 calls
| | Properties                      :      1.683u      0.067s      1.123w  41160 calls
| | Functional                      :      4.017u      0.050s      2.391w  41160 calls
| | V_xc                            :      2.083u      0.017s      1.279w  41160 calls
| JK: D                             :      0.000u      0.000s      0.000w     14 calls
| JK: USO2AO                        :      0.000u      0.000s      0.000w     14 calls
| JK: JK                            :      0.067u      0.000s      0.019w     14 calls
| | DFH: compute_JK()               :      0.067u      0.000s      0.019w     14 calls
| | | DFH: Grabbing AOs             :      0.000u      0.000s      0.000w     14 calls
| | | DFH: compute_J                :      0.067u      0.000s      0.019w     14 calls
| JK: AO2USO                        :      0.000u      0.000s      0.000w     14 calls
HF: Form F                          :      0.000u      0.000s      0.000w     14 calls
HF: Form D                          :      0.000u      0.000s      0.000w     14 calls
HF: DIIS                            :      0.000u      0.000s      0.016w     13 calls
| DIISManager::add_entry            :      0.000u      0.000s      0.001w     13 calls
| DIISManager::extrapolate          :      0.000u      0.000s      0.011w     13 calls
| | bMatrix setup                   :      0.000u      0.000s      0.010w     13 calls
| | bMatrix pseudoinverse           :      0.000u      0.000s      0.001w     13 calls
| | New vector                      :      0.000u      0.000s      0.000w     13 calls
HF: Form C                          :      0.000u      0.000s      0.003w     13 calls
Grad: V T Perturb                   :      0.083u      0.000s      0.050w      1 calls
Grad: S                             :      0.000u      0.000s      0.001w      1 calls
Grad: JK                            :      1.833u      0.000s      1.112w      1 calls
| JKGrad: Amn                       :      0.300u      0.000s      0.172w      1 calls
| JKGrad: Awmn                      :      0.000u      0.000s      0.000w      1 calls
| JKGrad: AB                        :      0.267u      0.000s      0.164w      1 calls
| JKGrad: UV                        :      0.000u      0.000s      0.000w      1 calls
| JKGrad: ABx                       :      0.117u      0.000s      0.074w      1 calls
| JKGrad: Amnx                      :      1.133u      0.000s      0.681w      1 calls
Grad: XC                            :      1.350u      0.000s      0.811w      1 calls
| Properties                        :      0.700u      0.000s      0.344w   2940 calls
| Functional                        :      0.150u      0.000s      0.172w   2940 calls
| V_xc gradient                     :      0.483u      0.000s      0.291w   2940 calls

**************************************************************************************

Host: aaojha

Timers On : Fri May 14 10:06:40 2021
Timers Off: Fri May 14 10:06:49 2021

Wall Time:        9.68 seconds

                                                       Time (seconds)
Module                                       User      System        Wall        Calls
V: Grid                             :      1.200u      0.000s      0.726w      1 calls
DFH: sparsity prep                  :      0.033u      0.000s      0.013w      1 calls
DFH: initialize()                   :      0.617u      0.033s      0.387w      1 calls
DFH: AO Construction                :      0.250u      0.000s      0.155w      1 calls
DFH: AO-Met. Contraction            :      0.083u      0.000s      0.046w      1 calls
HF: Form core H                     :      0.000u      0.000s      0.002w      1 calls
HF: Form S/X                        :      0.000u      0.000s      0.001w      1 calls
HF: Guess                           :      0.283u      0.000s      0.170w      1 calls
SAD Guess                           :      0.250u      0.000s      0.153w      1 calls
HF: Form G                          :      8.533u      0.150s      5.226w     15 calls
RV: Form V                          :      8.500u      0.150s      5.204w     15 calls
Properties                          :      2.617u      0.050s      1.545w  47216 calls
Functional                          :      4.317u      0.050s      2.730w  47216 calls
V_xc                                :      2.300u      0.050s      1.382w  44265 calls
JK: D                               :      0.000u      0.000s      0.000w     15 calls
JK: USO2AO                          :      0.000u      0.000s      0.000w     15 calls
JK: JK                              :      0.033u      0.000s      0.021w     15 calls
DFH: compute_JK()                   :      0.033u      0.000s      0.021w     15 calls
DFH: Grabbing AOs                   :      0.000u      0.000s      0.000w     15 calls
DFH: compute_J                      :      0.033u      0.000s      0.021w     15 calls
JK: AO2USO                          :      0.000u      0.000s      0.000w     15 calls
HF: Form F                          :      0.000u      0.000s      0.000w     15 calls
HF: Form D                          :      0.000u      0.000s      0.000w     15 calls
HF: DIIS                            :      0.017u      0.000s      0.006w     14 calls
DIISManager::add_entry              :      0.000u      0.000s      0.001w     14 calls
DIISManager::extrapolate            :      0.000u      0.000s      0.002w     14 calls
bMatrix setup                       :      0.000u      0.000s      0.001w     14 calls
bMatrix pseudoinverse               :      0.000u      0.000s      0.001w     14 calls
New vector                          :      0.000u      0.000s      0.000w     14 calls
HF: Form C                          :      0.017u      0.000s      0.003w     14 calls
Grad: V T Perturb                   :      0.083u      0.000s      0.052w      1 calls
Grad: S                             :      0.000u      0.000s      0.001w      1 calls
Grad: JK                            :      1.850u      0.000s      1.127w      1 calls
JKGrad: Amn                         :      0.283u      0.000s      0.171w      1 calls
JKGrad: Awmn                        :      0.000u      0.000s      0.000w      1 calls
JKGrad: AB                          :      0.267u      0.000s      0.167w      1 calls
JKGrad: UV                          :      0.000u      0.000s      0.000w      1 calls
JKGrad: ABx                         :      0.133u      0.000s      0.073w      1 calls
JKGrad: Amnx                        :      1.133u      0.000s      0.684w      1 calls
Grad: XC                            :      1.367u      0.000s      0.823w      1 calls
V_xc gradient                       :      0.533u      0.000s      0.299w   2951 calls

--------------------------------------------------------------------------------------
V: Grid                             :      1.200u      0.000s      0.726w      1 calls
DFH: sparsity prep                  :      0.033u      0.000s      0.013w      1 calls
DFH: initialize()                   :      0.617u      0.033s      0.387w      1 calls
| DFH: AO Construction              :      0.250u      0.000s      0.155w      1 calls
| DFH: AO-Met. Contraction          :      0.083u      0.000s      0.046w      1 calls
HF: Form core H                     :      0.000u      0.000s      0.002w      1 calls
HF: Form S/X                        :      0.000u      0.000s      0.001w      1 calls
HF: Guess                           :      0.283u      0.000s      0.170w      1 calls
| SAD Guess                         :      0.250u      0.000s      0.153w      1 calls
HF: Form G                          :      8.533u      0.150s      5.226w     15 calls
| RV: Form V                        :      8.500u      0.150s      5.204w     15 calls
| | Properties                      :      2.083u      0.050s      1.198w  44265 calls
| | Functional                      :      4.050u      0.050s      2.559w  44265 calls
| | V_xc                            :      2.300u      0.050s      1.382w  44265 calls
| JK: D                             :      0.000u      0.000s      0.000w     15 calls
| JK: USO2AO                        :      0.000u      0.000s      0.000w     15 calls
| JK: JK                            :      0.033u      0.000s      0.021w     15 calls
| | DFH: compute_JK()               :      0.033u      0.000s      0.021w     15 calls
| | | DFH: Grabbing AOs             :      0.000u      0.000s      0.000w     15 calls
| | | DFH: compute_J                :      0.033u      0.000s      0.021w     15 calls
| JK: AO2USO                        :      0.000u      0.000s      0.000w     15 calls
HF: Form F                          :      0.000u      0.000s      0.000w     15 calls
HF: Form D                          :      0.000u      0.000s      0.000w     15 calls
HF: DIIS                            :      0.017u      0.000s      0.006w     14 calls
| DIISManager::add_entry            :      0.000u      0.000s      0.001w     14 calls
| DIISManager::extrapolate          :      0.000u      0.000s      0.002w     14 calls
| | bMatrix setup                   :      0.000u      0.000s      0.001w     14 calls
| | bMatrix pseudoinverse           :      0.000u      0.000s      0.001w     14 calls
| | New vector                      :      0.000u      0.000s      0.000w     14 calls
HF: Form C                          :      0.017u      0.000s      0.003w     14 calls
Grad: V T Perturb                   :      0.083u      0.000s      0.052w      1 calls
Grad: S                             :      0.000u      0.000s      0.001w      1 calls
Grad: JK                            :      1.850u      0.000s      1.127w      1 calls
| JKGrad: Amn                       :      0.283u      0.000s      0.171w      1 calls
| JKGrad: Awmn                      :      0.000u      0.000s      0.000w      1 calls
| JKGrad: AB                        :      0.267u      0.000s      0.167w      1 calls
| JKGrad: UV                        :      0.000u      0.000s      0.000w      1 calls
| JKGrad: ABx                       :      0.133u      0.000s      0.073w      1 calls
| JKGrad: Amnx                      :      1.133u      0.000s      0.684w      1 calls
Grad: XC                            :      1.367u      0.000s      0.823w      1 calls
| Properties                        :      0.533u      0.000s      0.347w   2951 calls
| Functional                        :      0.267u      0.000s      0.171w   2951 calls
| V_xc gradient                     :      0.533u      0.000s      0.299w   2951 calls

**************************************************************************************

Host: aaojha

Timers On : Fri May 14 10:06:49 2021
Timers Off: Fri May 14 10:06:59 2021

Wall Time:        9.32 seconds

                                                       Time (seconds)
Module                                       User      System        Wall        Calls
V: Grid                             :      1.217u      0.017s      0.736w      1 calls
DFH: sparsity prep                  :      0.017u      0.000s      0.013w      1 calls
DFH: initialize()                   :      0.600u      0.033s      0.385w      1 calls
DFH: AO Construction                :      0.250u      0.017s      0.155w      1 calls
DFH: AO-Met. Contraction            :      0.050u      0.017s      0.045w      1 calls
HF: Form core H                     :      0.000u      0.000s      0.002w      1 calls
HF: Form S/X                        :      0.000u      0.000s      0.000w      1 calls
HF: Guess                           :      0.250u      0.000s      0.153w      1 calls
SAD Guess                           :      0.233u      0.000s      0.146w      1 calls
HF: Form G                          :      8.083u      0.050s      4.880w     14 calls
RV: Form V                          :      8.033u      0.050s      4.860w     14 calls
Properties                          :      2.317u      0.017s      1.468w  44295 calls
Functional                          :      4.283u      0.033s      2.570w  44295 calls
V_xc                                :      2.117u      0.000s      1.282w  41342 calls
JK: D                               :      0.000u      0.000s      0.000w     14 calls
JK: USO2AO                          :      0.000u      0.000s      0.000w     14 calls
JK: JK                              :      0.050u      0.000s      0.019w     14 calls
DFH: compute_JK()                   :      0.050u      0.000s      0.019w     14 calls
DFH: Grabbing AOs                   :      0.000u      0.000s      0.000w     14 calls
DFH: compute_J                      :      0.050u      0.000s      0.019w     14 calls
JK: AO2USO                          :      0.000u      0.000s      0.000w     14 calls
HF: Form F                          :      0.000u      0.000s      0.000w     14 calls
HF: Form D                          :      0.000u      0.000s      0.000w     14 calls
HF: DIIS                            :      0.000u      0.000s      0.006w     13 calls
DIISManager::add_entry              :      0.000u      0.000s      0.001w     13 calls
DIISManager::extrapolate            :      0.000u      0.000s      0.001w     13 calls
bMatrix setup                       :      0.000u      0.000s      0.001w     13 calls
bMatrix pseudoinverse               :      0.000u      0.000s      0.000w     13 calls
New vector                          :      0.000u      0.000s      0.000w     13 calls
HF: Form C                          :      0.000u      0.000s      0.003w     13 calls
Grad: V T Perturb                   :      0.083u      0.000s      0.053w      1 calls
Grad: S                             :      0.000u      0.000s      0.001w      1 calls
Grad: JK                            :      1.867u      0.000s      1.135w      1 calls
JKGrad: Amn                         :      0.300u      0.000s      0.181w      1 calls
JKGrad: Awmn                        :      0.000u      0.000s      0.000w      1 calls
JKGrad: AB                          :      0.267u      0.000s      0.167w      1 calls
JKGrad: UV                          :      0.000u      0.000s      0.000w      1 calls
JKGrad: ABx                         :      0.133u      0.000s      0.074w      1 calls
JKGrad: Amnx                        :      1.133u      0.000s      0.681w      1 calls
Grad: XC                            :      1.350u      0.000s      0.814w      1 calls
V_xc gradient                       :      0.533u      0.000s      0.291w   2953 calls

--------------------------------------------------------------------------------------
V: Grid                             :      1.217u      0.017s      0.736w      1 calls
DFH: sparsity prep                  :      0.017u      0.000s      0.013w      1 calls
DFH: initialize()                   :      0.600u      0.033s      0.385w      1 calls
| DFH: AO Construction              :      0.250u      0.017s      0.155w      1 calls
| DFH: AO-Met. Contraction          :      0.050u      0.017s      0.045w      1 calls
HF: Form core H                     :      0.000u      0.000s      0.002w      1 calls
HF: Form S/X                        :      0.000u      0.000s      0.000w      1 calls
HF: Guess                           :      0.250u      0.000s      0.153w      1 calls
| SAD Guess                         :      0.233u      0.000s      0.146w      1 calls
HF: Form G                          :      8.083u      0.050s      4.880w     14 calls
| RV: Form V                        :      8.033u      0.050s      4.860w     14 calls
| | Properties                      :      1.800u      0.017s      1.122w  41342 calls
| | Functional                      :      3.983u      0.033s      2.397w  41342 calls
| | V_xc                            :      2.117u      0.000s      1.282w  41342 calls
| JK: D                             :      0.000u      0.000s      0.000w     14 calls
| JK: USO2AO                        :      0.000u      0.000s      0.000w     14 calls
| JK: JK                            :      0.050u      0.000s      0.019w     14 calls
| | DFH: compute_JK()               :      0.050u      0.000s      0.019w     14 calls
| | | DFH: Grabbing AOs             :      0.000u      0.000s      0.000w     14 calls
| | | DFH: compute_J                :      0.050u      0.000s      0.019w     14 calls
| JK: AO2USO                        :      0.000u      0.000s      0.000w     14 calls
HF: Form F                          :      0.000u      0.000s      0.000w     14 calls
HF: Form D                          :      0.000u      0.000s      0.000w     14 calls
HF: DIIS                            :      0.000u      0.000s      0.006w     13 calls
| DIISManager::add_entry            :      0.000u      0.000s      0.001w     13 calls
| DIISManager::extrapolate          :      0.000u      0.000s      0.001w     13 calls
| | bMatrix setup                   :      0.000u      0.000s      0.001w     13 calls
| | bMatrix pseudoinverse           :      0.000u      0.000s      0.000w     13 calls
| | New vector                      :      0.000u      0.000s      0.000w     13 calls
HF: Form C                          :      0.000u      0.000s      0.003w     13 calls
Grad: V T Perturb                   :      0.083u      0.000s      0.053w      1 calls
Grad: S                             :      0.000u      0.000s      0.001w      1 calls
Grad: JK                            :      1.867u      0.000s      1.135w      1 calls
| JKGrad: Amn                       :      0.300u      0.000s      0.181w      1 calls
| JKGrad: Awmn                      :      0.000u      0.000s      0.000w      1 calls
| JKGrad: AB                        :      0.267u      0.000s      0.167w      1 calls
| JKGrad: UV                        :      0.000u      0.000s      0.000w      1 calls
| JKGrad: ABx                       :      0.133u      0.000s      0.074w      1 calls
| JKGrad: Amnx                      :      1.133u      0.000s      0.681w      1 calls
Grad: XC                            :      1.350u      0.000s      0.814w      1 calls
| Properties                        :      0.517u      0.000s      0.347w   2953 calls
| Functional                        :      0.300u      0.000s      0.172w   2953 calls
| V_xc gradient                     :      0.533u      0.000s      0.291w   2953 calls

**************************************************************************************

Host: aaojha

Timers On : Fri May 14 10:06:59 2021
Timers Off: Fri May 14 10:07:09 2021

Wall Time:        9.75 seconds

                                                       Time (seconds)
Module                                       User      System        Wall        Calls
V: Grid                             :      1.217u      0.017s      0.739w      1 calls
DFH: sparsity prep                  :      0.017u      0.000s      0.013w      1 calls
DFH: initialize()                   :      0.617u      0.033s      0.394w      1 calls
DFH: AO Construction                :      0.267u      0.000s      0.157w      1 calls
DFH: AO-Met. Contraction            :      0.067u      0.000s      0.047w      1 calls
HF: Form core H                     :      0.000u      0.000s      0.000w      1 calls
HF: Form S/X                        :      0.000u      0.000s      0.000w      1 calls
HF: Guess                           :      0.267u      0.000s      0.156w      1 calls
SAD Guess                           :      0.250u      0.000s      0.149w      1 calls
HF: Form G                          :      8.667u      0.083s      5.253w     15 calls
RV: Form V                          :      8.650u      0.083s      5.232w     15 calls
Properties                          :      2.500u      0.033s      1.564w  47120 calls
Functional                          :      4.667u      0.050s      2.751w  47120 calls
V_xc                                :      2.100u      0.000s      1.392w  44175 calls
JK: D                               :      0.000u      0.000s      0.000w     15 calls
JK: USO2AO                          :      0.000u      0.000s      0.000w     15 calls
JK: JK                              :      0.017u      0.000s      0.020w     15 calls
DFH: compute_JK()                   :      0.017u      0.000s      0.020w     15 calls
DFH: Grabbing AOs                   :      0.000u      0.000s      0.000w     15 calls
DFH: compute_J                      :      0.017u      0.000s      0.020w     15 calls
JK: AO2USO                          :      0.000u      0.000s      0.000w     15 calls
HF: Form F                          :      0.000u      0.000s      0.000w     15 calls
HF: Form D                          :      0.000u      0.000s      0.000w     15 calls
HF: DIIS                            :      0.000u      0.000s      0.006w     14 calls
DIISManager::add_entry              :      0.000u      0.000s      0.001w     14 calls
DIISManager::extrapolate            :      0.000u      0.000s      0.002w     14 calls
bMatrix setup                       :      0.000u      0.000s      0.001w     14 calls
bMatrix pseudoinverse               :      0.000u      0.000s      0.000w     14 calls
New vector                          :      0.000u      0.000s      0.000w     14 calls
HF: Form C                          :      0.000u      0.000s      0.003w     14 calls
Grad: V T Perturb                   :      0.083u      0.000s      0.052w      1 calls
Grad: S                             :      0.000u      0.000s      0.001w      1 calls
Grad: JK                            :      1.883u      0.000s      1.154w      1 calls
JKGrad: Amn                         :      0.283u      0.000s      0.171w      1 calls
JKGrad: Awmn                        :      0.000u      0.000s      0.000w      1 calls
JKGrad: AB                          :      0.300u      0.000s      0.174w      1 calls
JKGrad: UV                          :      0.000u      0.000s      0.000w      1 calls
JKGrad: ABx                         :      0.117u      0.000s      0.075w      1 calls
JKGrad: Amnx                        :      1.167u      0.000s      0.701w      1 calls
Grad: XC                            :      1.417u      0.000s      0.848w      1 calls
V_xc gradient                       :      0.583u      0.000s      0.304w   2945 calls

--------------------------------------------------------------------------------------
V: Grid                             :      1.217u      0.017s      0.739w      1 calls
DFH: sparsity prep                  :      0.017u      0.000s      0.013w      1 calls
DFH: initialize()                   :      0.617u      0.033s      0.394w      1 calls
| DFH: AO Construction              :      0.267u      0.000s      0.157w      1 calls
| DFH: AO-Met. Contraction          :      0.067u      0.000s      0.047w      1 calls
HF: Form core H                     :      0.000u      0.000s      0.000w      1 calls
HF: Form S/X                        :      0.000u      0.000s      0.000w      1 calls
HF: Guess                           :      0.267u      0.000s      0.156w      1 calls
| SAD Guess                         :      0.250u      0.000s      0.149w      1 calls
HF: Form G                          :      8.667u      0.083s      5.253w     15 calls
| RV: Form V                        :      8.650u      0.083s      5.232w     15 calls
| | Properties                      :      1.933u      0.033s      1.197w  44175 calls
| | Functional                      :      4.400u      0.050s      2.578w  44175 calls
| | V_xc                            :      2.100u      0.000s      1.392w  44175 calls
| JK: D                             :      0.000u      0.000s      0.000w     15 calls
| JK: USO2AO                        :      0.000u      0.000s      0.000w     15 calls
| JK: JK                            :      0.017u      0.000s      0.020w     15 calls
| | DFH: compute_JK()               :      0.017u      0.000s      0.020w     15 calls
| | | DFH: Grabbing AOs             :      0.000u      0.000s      0.000w     15 calls
| | | DFH: compute_J                :      0.017u      0.000s      0.020w     15 calls
| JK: AO2USO                        :      0.000u      0.000s      0.000w     15 calls
HF: Form F                          :      0.000u      0.000s      0.000w     15 calls
HF: Form D                          :      0.000u      0.000s      0.000w     15 calls
HF: DIIS                            :      0.000u      0.000s      0.006w     14 calls
| DIISManager::add_entry            :      0.000u      0.000s      0.001w     14 calls
| DIISManager::extrapolate          :      0.000u      0.000s      0.002w     14 calls
| | bMatrix setup                   :      0.000u      0.000s      0.001w     14 calls
| | bMatrix pseudoinverse           :      0.000u      0.000s      0.000w     14 calls
| | New vector                      :      0.000u      0.000s      0.000w     14 calls
HF: Form C                          :      0.000u      0.000s      0.003w     14 calls
Grad: V T Perturb                   :      0.083u      0.000s      0.052w      1 calls
Grad: S                             :      0.000u      0.000s      0.001w      1 calls
Grad: JK                            :      1.883u      0.000s      1.154w      1 calls
| JKGrad: Amn                       :      0.283u      0.000s      0.171w      1 calls
| JKGrad: Awmn                      :      0.000u      0.000s      0.000w      1 calls
| JKGrad: AB                        :      0.300u      0.000s      0.174w      1 calls
| JKGrad: UV                        :      0.000u      0.000s      0.000w      1 calls
| JKGrad: ABx                       :      0.117u      0.000s      0.075w      1 calls
| JKGrad: Amnx                      :      1.167u      0.000s      0.701w      1 calls
Grad: XC                            :      1.417u      0.000s      0.848w      1 calls
| Properties                        :      0.567u      0.000s      0.367w   2945 calls
| Functional                        :      0.267u      0.000s      0.173w   2945 calls
| V_xc gradient                     :      0.583u      0.000s      0.304w   2945 calls

**************************************************************************************

Host: aaojha

Timers On : Fri May 14 10:07:09 2021
Timers Off: Fri May 14 10:07:18 2021

Wall Time:        9.30 seconds

                                                       Time (seconds)
Module                                       User      System        Wall        Calls
V: Grid                             :      1.200u      0.017s      0.724w      1 calls
DFH: sparsity prep                  :      0.017u      0.000s      0.012w      1 calls
DFH: initialize()                   :      0.633u      0.017s      0.388w      1 calls
DFH: AO Construction                :      0.250u      0.000s      0.157w      1 calls
DFH: AO-Met. Contraction            :      0.083u      0.000s      0.046w      1 calls
HF: Form core H                     :      0.000u      0.000s      0.002w      1 calls
HF: Form S/X                        :      0.000u      0.000s      0.000w      1 calls
HF: Guess                           :      0.250u      0.000s      0.153w      1 calls
SAD Guess                           :      0.233u      0.000s      0.146w      1 calls
HF: Form G                          :      8.017u      0.133s      4.908w     14 calls
RV: Form V                          :      7.983u      0.133s      4.888w     14 calls
Properties                          :      2.433u      0.033s      1.464w  44115 calls
Functional                          :      4.250u      0.083s      2.597w  44115 calls
V_xc                                :      2.050u      0.017s      1.285w  41174 calls
JK: D                               :      0.000u      0.000s      0.000w     14 calls
JK: USO2AO                          :      0.000u      0.000s      0.000w     14 calls
JK: JK                              :      0.033u      0.000s      0.019w     14 calls
DFH: compute_JK()                   :      0.033u      0.000s      0.019w     14 calls
DFH: Grabbing AOs                   :      0.000u      0.000s      0.000w     14 calls
DFH: compute_J                      :      0.033u      0.000s      0.019w     14 calls
JK: AO2USO                          :      0.000u      0.000s      0.000w     14 calls
HF: Form F                          :      0.000u      0.000s      0.000w     14 calls
HF: Form D                          :      0.000u      0.000s      0.000w     14 calls
HF: DIIS                            :      0.017u      0.000s      0.013w     13 calls
DIISManager::add_entry              :      0.000u      0.000s      0.008w     13 calls
DIISManager::extrapolate            :      0.017u      0.000s      0.001w     13 calls
bMatrix setup                       :      0.000u      0.000s      0.001w     13 calls
bMatrix pseudoinverse               :      0.017u      0.000s      0.000w     13 calls
New vector                          :      0.000u      0.000s      0.000w     13 calls
HF: Form C                          :      0.000u      0.000s      0.003w     13 calls
Grad: V T Perturb                   :      0.083u      0.000s      0.051w      1 calls
Grad: S                             :      0.000u      0.000s      0.001w      1 calls
Grad: JK                            :      1.867u      0.000s      1.127w      1 calls
JKGrad: Amn                         :      0.283u      0.000s      0.173w      1 calls
JKGrad: Awmn                        :      0.000u      0.000s      0.000w      1 calls
JKGrad: AB                          :      0.283u      0.000s      0.164w      1 calls
JKGrad: UV                          :      0.000u      0.000s      0.000w      1 calls
JKGrad: ABx                         :      0.117u      0.000s      0.074w      1 calls
JKGrad: Amnx                        :      1.167u      0.000s      0.693w      1 calls
Grad: XC                            :      1.333u      0.033s      0.815w      1 calls
V_xc gradient                       :      0.500u      0.033s      0.294w   2941 calls

--------------------------------------------------------------------------------------
V: Grid                             :      1.200u      0.017s      0.724w      1 calls
DFH: sparsity prep                  :      0.017u      0.000s      0.012w      1 calls
DFH: initialize()                   :      0.633u      0.017s      0.388w      1 calls
| DFH: AO Construction              :      0.250u      0.000s      0.157w      1 calls
| DFH: AO-Met. Contraction          :      0.083u      0.000s      0.046w      1 calls
HF: Form core H                     :      0.000u      0.000s      0.002w      1 calls
HF: Form S/X                        :      0.000u      0.000s      0.000w      1 calls
HF: Guess                           :      0.250u      0.000s      0.153w      1 calls
| SAD Guess                         :      0.233u      0.000s      0.146w      1 calls
HF: Form G                          :      8.017u      0.133s      4.908w     14 calls
| RV: Form V                        :      7.983u      0.133s      4.888w     14 calls
| | Properties                      :      1.767u      0.033s      1.119w  41174 calls
| | Functional                      :      4.100u      0.083s      2.425w  41174 calls
| | V_xc                            :      2.050u      0.017s      1.285w  41174 calls
| JK: D                             :      0.000u      0.000s      0.000w     14 calls
| JK: USO2AO                        :      0.000u      0.000s      0.000w     14 calls
| JK: JK                            :      0.033u      0.000s      0.019w     14 calls
| | DFH: compute_JK()               :      0.033u      0.000s      0.019w     14 calls
| | | DFH: Grabbing AOs             :      0.000u      0.000s      0.000w     14 calls
| | | DFH: compute_J                :      0.033u      0.000s      0.019w     14 calls
| JK: AO2USO                        :      0.000u      0.000s      0.000w     14 calls
HF: Form F                          :      0.000u      0.000s      0.000w     14 calls
HF: Form D                          :      0.000u      0.000s      0.000w     14 calls
HF: DIIS                            :      0.017u      0.000s      0.013w     13 calls
| DIISManager::add_entry            :      0.000u      0.000s      0.008w     13 calls
| DIISManager::extrapolate          :      0.017u      0.000s      0.001w     13 calls
| | bMatrix setup                   :      0.000u      0.000s      0.001w     13 calls
| | bMatrix pseudoinverse           :      0.017u      0.000s      0.000w     13 calls
| | New vector                      :      0.000u      0.000s      0.000w     13 calls
HF: Form C                          :      0.000u      0.000s      0.003w     13 calls
Grad: V T Perturb                   :      0.083u      0.000s      0.051w      1 calls
Grad: S                             :      0.000u      0.000s      0.001w      1 calls
Grad: JK                            :      1.867u      0.000s      1.127w      1 calls
| JKGrad: Amn                       :      0.283u      0.000s      0.173w      1 calls
| JKGrad: Awmn                      :      0.000u      0.000s      0.000w      1 calls
| JKGrad: AB                        :      0.283u      0.000s      0.164w      1 calls
| JKGrad: UV                        :      0.000u      0.000s      0.000w      1 calls
| JKGrad: ABx                       :      0.117u      0.000s      0.074w      1 calls
| JKGrad: Amnx                      :      1.167u      0.000s      0.693w      1 calls
Grad: XC                            :      1.333u      0.033s      0.815w      1 calls
| Properties                        :      0.667u      0.000s      0.345w   2941 calls
| Functional                        :      0.150u      0.000s      0.172w   2941 calls
| V_xc gradient                     :      0.500u      0.033s      0.294w   2941 calls

**************************************************************************************

Host: aaojha

Timers On : Fri May 14 10:07:19 2021
Timers Off: Fri May 14 10:07:28 2021

Wall Time:        9.33 seconds

                                                       Time (seconds)
Module                                       User      System        Wall        Calls
V: Grid                             :      1.267u      0.017s      0.758w      1 calls
DFH: sparsity prep                  :      0.017u      0.000s      0.012w      1 calls
DFH: initialize()                   :      0.633u      0.017s      0.387w      1 calls
DFH: AO Construction                :      0.250u      0.000s      0.155w      1 calls
DFH: AO-Met. Contraction            :      0.083u      0.000s      0.046w      1 calls
HF: Form core H                     :      0.000u      0.000s      0.002w      1 calls
HF: Form S/X                        :      0.000u      0.000s      0.000w      1 calls
HF: Guess                           :      0.250u      0.000s      0.153w      1 calls
SAD Guess                           :      0.233u      0.000s      0.146w      1 calls
HF: Form G                          :      7.983u      0.133s      4.865w     14 calls
RV: Form V                          :      7.967u      0.133s      4.845w     14 calls
Properties                          :      2.300u      0.033s      1.477w  44055 calls
Functional                          :      4.283u      0.083s      2.549w  44055 calls
V_xc                                :      2.050u      0.033s      1.283w  41118 calls
JK: D                               :      0.000u      0.000s      0.000w     14 calls
JK: USO2AO                          :      0.000u      0.000s      0.000w     14 calls
JK: JK                              :      0.017u      0.000s      0.019w     14 calls
DFH: compute_JK()                   :      0.017u      0.000s      0.019w     14 calls
DFH: Grabbing AOs                   :      0.000u      0.000s      0.000w     14 calls
DFH: compute_J                      :      0.017u      0.000s      0.019w     14 calls
JK: AO2USO                          :      0.000u      0.000s      0.000w     14 calls
HF: Form F                          :      0.000u      0.000s      0.000w     14 calls
HF: Form D                          :      0.000u      0.000s      0.000w     14 calls
HF: DIIS                            :      0.000u      0.000s      0.008w     13 calls
[...]
JKGrad: AB                          :      0.283u      0.000s      0.165w      1 calls
JKGrad: UV                          :      0.000u      0.000s      0.000w      1 calls
JKGrad: ABx                         :      0.117u      0.000s      0.074w      1 calls
JKGrad: Amnx                        :      1.150u      0.000s      0.685w      1 calls
Grad: XC                            :      1.400u      0.000s      0.843w      1 calls
V_xc gradient                       :      0.517u      0.000s      0.294w   2940 calls

--------------------------------------------------------------------------------------
V: Grid                             :      1.200u      0.000s      0.726w      1 calls
DFH: sparsity prep                  :      0.017u      0.000s      0.012w      1 calls
DFH: initialize()                   :      0.633u      0.017s      0.386w      1 calls
| DFH: AO Construction              :      0.250u      0.000s      0.154w      1 calls
| DFH: AO-Met. Contraction          :      0.083u      0.000s      0.045w      1 calls
HF: Form core H                     :      0.000u      0.000s      0.002w      1 calls
HF: Form S/X                        :      0.000u      0.000s      0.000w      1 calls
HF: Guess                           :      0.250u      0.017s      0.154w      1 calls
| SAD Guess                         :      0.233u      0.000s      0.147w      1 calls
HF: Form G                          :      7.950u      0.133s      4.875w     14 calls
| RV: Form V                        :      7.933u      0.133s      4.855w     14 calls
| | Properties                      :      1.583u      0.033s      1.121w  41160 calls
| | Functional                      :      4.150u      0.083s      2.389w  41160 calls
| | V_xc                            :      2.033u      0.017s      1.288w  41160 calls
| JK: D                             :      0.000u      0.000s      0.000w     14 calls
| JK: USO2AO                        :      0.000u      0.000s      0.000w     14 calls
| JK: JK                            :      0.017u      0.000s      0.019w     14 calls
| | DFH: compute_JK()               :      0.017u      0.000s      0.019w     14 calls
| | | DFH: Grabbing AOs             :      0.000u      0.000s      0.000w     14 calls
| | | DFH: compute_J                :      0.017u      0.000s      0.019w     14 calls
| JK: AO2USO                        :      0.000u      0.000s      0.000w     14 calls
HF: Form F                          :      0.000u      0.000s      0.000w     14 calls
HF: Form D                          :      0.000u      0.000s      0.000w     14 calls
HF: DIIS                            :      0.033u      0.000s      0.015w     13 calls
| DIISManager::add_entry            :      0.000u      0.000s      0.001w     13 calls
| DIISManager::extrapolate          :      0.000u      0.000s      0.011w     13 calls
| | bMatrix setup                   :      0.000u      0.000s      0.010w     13 calls
| | bMatrix pseudoinverse           :      0.000u      0.000s      0.000w     13 calls
| | New vector                      :      0.000u      0.000s      0.000w     13 calls
HF: Form C                          :      0.000u      0.000s      0.003w     13 calls
Grad: V T Perturb                   :      0.083u      0.000s      0.052w      1 calls
Grad: S                             :      0.000u      0.000s      0.001w      1 calls
Grad: JK                            :      1.850u      0.000s      1.117w      1 calls
| JKGrad: Amn                       :      0.283u      0.000s      0.171w      1 calls
| JKGrad: Awmn                      :      0.000u      0.000s      0.000w      1 calls
| JKGrad: AB                        :      0.283u      0.000s      0.165w      1 calls
| JKGrad: UV                        :      0.000u      0.000s      0.000w      1 calls
| JKGrad: ABx                       :      0.117u      0.000s      0.074w      1 calls
| JKGrad: Amnx                      :      1.150u      0.000s      0.685w      1 calls
Grad: XC                            :      1.400u      0.000s      0.843w      1 calls
| Properties                        :      0.683u      0.000s      0.372w   2940 calls
| Functional                        :      0.200u      0.000s      0.172w   2940 calls
| V_xc gradient                     :      0.517u      0.000s      0.294w   2940 calls

**************************************************************************************

Host: aaojha

Timers On : Fri May 14 10:07:38 2021
Timers Off: Fri May 14 10:07:47 2021

Wall Time:        9.27 seconds

                                                       Time (seconds)
Module                                       User      System        Wall        Calls
V: Grid                             :      1.183u      0.017s      0.721w      1 calls
DFH: sparsity prep                  :      0.017u      0.000s      0.012w      1 calls
DFH: initialize()                   :      0.600u      0.050s      0.387w      1 calls
DFH: AO Construction                :      0.250u      0.000s      0.155w      1 calls
DFH: AO-Met. Contraction            :      0.050u      0.033s      0.045w      1 calls
HF: Form core H                     :      0.000u      0.000s      0.002w      1 calls
HF: Form S/X                        :      0.000u      0.000s      0.000w      1 calls
HF: Guess                           :      0.250u      0.000s      0.153w      1 calls
SAD Guess                           :      0.233u      0.000s      0.146w      1 calls
HF: Form G                          :      8.050u      0.100s      4.873w     14 calls
RV: Form V                          :      8.033u      0.100s      4.853w     14 calls
Properties                          :      2.517u      0.017s      1.469w  44100 calls
Functional                          :      4.017u      0.050s      2.555w  44100 calls
V_xc                                :      2.183u      0.033s      1.286w  41160 calls
JK: D                               :      0.000u      0.000s      0.000w     14 calls
JK: USO2AO                          :      0.000u      0.000s      0.000w     14 calls
JK: JK                              :      0.017u      0.000s      0.020w     14 calls
DFH: compute_JK()                   :      0.017u      0.000s      0.020w     14 calls
DFH: Grabbing AOs                   :      0.000u      0.000s      0.000w     14 calls
DFH: compute_J                      :      0.017u      0.000s      0.019w     14 calls
JK: AO2USO                          :      0.000u      0.000s      0.000w     14 calls
HF: Form F                          :      0.000u      0.000s      0.000w     14 calls
HF: Form D                          :      0.000u      0.000s      0.000w     14 calls
HF: DIIS                            :      0.000u      0.000s      0.006w     13 calls
DIISManager::add_entry              :      0.000u      0.000s      0.001w     13 calls
DIISManager::extrapolate            :      0.000u      0.000s      0.001w     13 calls
bMatrix setup                       :      0.000u      0.000s      0.001w     13 calls
bMatrix pseudoinverse               :      0.000u      0.000s      0.000w     13 calls
New vector                          :      0.000u      0.000s      0.000w     13 calls
HF: Form C                          :      0.017u      0.000s      0.003w     13 calls
Grad: V T Perturb                   :      0.100u      0.000s      0.054w      1 calls
Grad: S                             :      0.000u      0.000s      0.001w      1 calls
Grad: JK                            :      1.850u      0.000s      1.119w      1 calls
JKGrad: Amn                         :      0.283u      0.000s      0.171w      1 calls
JKGrad: Awmn                        :      0.000u      0.000s      0.000w      1 calls
JKGrad: AB                          :      0.283u      0.000s      0.165w      1 calls
JKGrad: UV                          :      0.000u      0.000s      0.000w      1 calls
JKGrad: ABx                         :      0.117u      0.000s      0.075w      1 calls
JKGrad: Amnx                        :      1.150u      0.000s      0.684w      1 calls
Grad: XC                            :      1.350u      0.000s      0.814w      1 calls
V_xc gradient                       :      0.500u      0.000s      0.293w   2940 calls

--------------------------------------------------------------------------------------
V: Grid                             :      1.183u      0.017s      0.721w      1 calls
DFH: sparsity prep                  :      0.017u      0.000s      0.012w      1 calls
DFH: initialize()                   :      0.600u      0.050s      0.387w      1 calls
| DFH: AO Construction              :      0.250u      0.000s      0.155w      1 calls
| DFH: AO-Met. Contraction          :      0.050u      0.033s      0.045w      1 calls
HF: Form core H                     :      0.000u      0.000s      0.002w      1 calls
HF: Form S/X                        :      0.000u      0.000s      0.000w      1 calls
HF: Guess                           :      0.250u      0.000s      0.153w      1 calls
| SAD Guess                         :      0.233u      0.000s      0.146w      1 calls
HF: Form G                          :      8.050u      0.100s      4.873w     14 calls
| RV: Form V                        :      8.033u      0.100s      4.853w     14 calls
| | Properties                      :      1.867u      0.017s      1.124w  41160 calls
| | Functional                      :      3.833u      0.050s      2.383w  41160 calls
| | V_xc                            :      2.183u      0.033s      1.286w  41160 calls
| JK: D                             :      0.000u      0.000s      0.000w     14 calls
| JK: USO2AO                        :      0.000u      0.000s      0.000w     14 calls
| JK: JK                            :      0.017u      0.000s      0.020w     14 calls
| | DFH: compute_JK()               :      0.017u      0.000s      0.020w     14 calls
| | | DFH: Grabbing AOs             :      0.000u      0.000s      0.000w     14 calls
| | | DFH: compute_J                :      0.017u      0.000s      0.019w     14 calls
| JK: AO2USO                        :      0.000u      0.000s      0.000w     14 calls
HF: Form F                          :      0.000u      0.000s      0.000w     14 calls
HF: Form D                          :      0.000u      0.000s      0.000w     14 calls
HF: DIIS                            :      0.000u      0.000s      0.006w     13 calls
| DIISManager::add_entry            :      0.000u      0.000s      0.001w     13 calls
| DIISManager::extrapolate          :      0.000u      0.000s      0.001w     13 calls
| | bMatrix setup                   :      0.000u      0.000s      0.001w     13 calls
| | bMatrix pseudoinverse           :      0.000u      0.000s      0.000w     13 calls
| | New vector                      :      0.000u      0.000s      0.000w     13 calls
HF: Form C                          :      0.017u      0.000s      0.003w     13 calls
Grad: V T Perturb                   :      0.100u      0.000s      0.054w      1 calls
Grad: S                             :      0.000u      0.000s      0.001w      1 calls
Grad: JK                            :      1.850u      0.000s      1.119w      1 calls
| JKGrad: Amn                       :      0.283u      0.000s      0.171w      1 calls
| JKGrad: Awmn                      :      0.000u      0.000s      0.000w      1 calls
| JKGrad: AB                        :      0.283u      0.000s      0.165w      1 calls
| JKGrad: UV                        :      0.000u      0.000s      0.000w      1 calls
| JKGrad: ABx                       :      0.117u      0.000s      0.075w      1 calls
| JKGrad: Amnx                      :      1.150u      0.000s      0.684w      1 calls
Grad: XC                            :      1.350u      0.000s      0.814w      1 calls
| Properties                        :      0.650u      0.000s      0.344w   2940 calls
| Functional                        :      0.183u      0.000s      0.171w   2940 calls
| V_xc gradient                     :      0.500u      0.000s      0.293w   2940 calls

**************************************************************************************

Host: aaojha

Timers On : Fri May 14 10:07:47 2021
Timers Off: Fri May 14 10:07:57 2021

Wall Time:        9.39 seconds

                                                       Time (seconds)
Module                                       User      System        Wall        Calls
V: Grid                             :      1.200u      0.017s      0.729w      1 calls
DFH: sparsity prep                  :      0.017u      0.000s      0.012w      1 calls
DFH: initialize()                   :      0.633u      0.017s      0.389w      1 calls
DFH: AO Construction                :      0.250u      0.000s      0.157w      1 calls
DFH: AO-Met. Contraction            :      0.083u      0.000s      0.045w      1 calls
HF: Form core H                     :      0.000u      0.000s      0.002w      1 calls
HF: Form S/X                        :      0.000u      0.000s      0.000w      1 calls
HF: Guess                           :      0.250u      0.000s      0.155w      1 calls
SAD Guess                           :      0.233u      0.000s      0.148w      1 calls
HF: Form G                          :      8.133u      0.100s      4.950w     14 calls
RV: Form V                          :      8.050u      0.100s      4.929w     14 calls
Properties                          :      2.267u      0.017s      1.503w  44070 calls
Functional                          :      4.683u      0.050s      2.585w  44070 calls
V_xc                                :      1.867u      0.050s      1.303w  41132 calls
JK: D                               :      0.000u      0.000s      0.000w     14 calls
JK: USO2AO                          :      0.000u      0.000s      0.000w     14 calls
JK: JK                              :      0.083u      0.000s      0.021w     14 calls
DFH: compute_JK()                   :      0.083u      0.000s      0.021w     14 calls
DFH: Grabbing AOs                   :      0.000u      0.000s      0.000w     14 calls
DFH: compute_J                      :      0.083u      0.000s      0.020w     14 calls
JK: AO2USO                          :      0.000u      0.000s      0.000w     14 calls
HF: Form F                          :      0.000u      0.000s      0.000w     14 calls
HF: Form D                          :      0.000u      0.000s      0.000w     14 calls
HF: DIIS                            :      0.017u      0.000s      0.006w     13 calls
DIISManager::add_entry              :      0.000u      0.000s      0.001w     13 calls
DIISManager::extrapolate            :      0.000u      0.000s      0.001w     13 calls
bMatrix setup                       :      0.000u      0.000s      0.001w     13 calls
bMatrix pseudoinverse               :      0.000u      0.000s      0.000w     13 calls
New vector                          :      0.000u      0.000s      0.000w     13 calls
HF: Form C                          :      0.000u      0.000s      0.003w     13 calls
Grad: V T Perturb                   :      0.083u      0.000s      0.052w      1 calls
Grad: S                             :      0.000u      0.000s      0.001w      1 calls
Grad: JK                            :      1.867u      0.000s      1.130w      1 calls
JKGrad: Amn                         :      0.283u      0.000s      0.171w      1 calls
JKGrad: Awmn                        :      0.000u      0.000s      0.000w      1 calls
JKGrad: AB                          :      0.283u      0.000s      0.167w      1 calls
JKGrad: UV                          :      0.000u      0.000s      0.000w      1 calls
JKGrad: ABx                         :      0.133u      0.000s      0.075w      1 calls
JKGrad: Amnx                        :      1.150u      0.000s      0.693w      1 calls
Grad: XC                            :      1.350u      0.017s      0.822w      1 calls
V_xc gradient                       :      0.500u      0.000s      0.296w   2938 calls

--------------------------------------------------------------------------------------
V: Grid                             :      1.200u      0.017s      0.729w      1 calls
DFH: sparsity prep                  :      0.017u      0.000s      0.012w      1 calls
DFH: initialize()                   :      0.633u      0.017s      0.389w      1 calls
| DFH: AO Construction              :      0.250u      0.000s      0.157w      1 calls
| DFH: AO-Met. Contraction          :      0.083u      0.000s      0.045w      1 calls
HF: Form core H                     :      0.000u      0.000s      0.002w      1 calls
HF: Form S/X                        :      0.000u      0.000s      0.000w      1 calls
HF: Guess                           :      0.250u      0.000s      0.155w      1 calls
| SAD Guess                         :      0.233u      0.000s      0.148w      1 calls
HF: Form G                          :      8.133u      0.100s      4.950w     14 calls
| RV: Form V                        :      8.050u      0.100s      4.929w     14 calls
| | Properties                      :      1.817u      0.000s      1.153w  41132 calls
| | Functional                      :      4.283u      0.050s      2.414w  41132 calls
| | V_xc                            :      1.867u      0.050s      1.303w  41132 calls
| JK: D                             :      0.000u      0.000s      0.000w     14 calls
| JK: USO2AO                        :      0.000u      0.000s      0.000w     14 calls
| JK: JK                            :      0.083u      0.000s      0.021w     14 calls
| | DFH: compute_JK()               :      0.083u      0.000s      0.021w     14 calls
| | | DFH: Grabbing AOs             :      0.000u      0.000s      0.000w     14 calls
| | | DFH: compute_J                :      0.083u      0.000s      0.020w     14 calls
| JK: AO2USO                        :      0.000u      0.000s      0.000w     14 calls
HF: Form F                          :      0.000u      0.000s      0.000w     14 calls
HF: Form D                          :      0.000u      0.000s      0.000w     14 calls
HF: DIIS                            :      0.017u      0.000s      0.006w     13 calls
| DIISManager::add_entry            :      0.000u      0.000s      0.001w     13 calls
| DIISManager::extrapolate          :      0.000u      0.000s      0.001w     13 calls
| | bMatrix setup                   :      0.000u      0.000s      0.001w     13 calls
| | bMatrix pseudoinverse           :      0.000u      0.000s      0.000w     13 calls
| | New vector                      :      0.000u      0.000s      0.000w     13 calls
HF: Form C                          :      0.000u      0.000s      0.003w     13 calls
Grad: V T Perturb                   :      0.083u      0.000s      0.052w      1 calls
Grad: S                             :      0.000u      0.000s      0.001w      1 calls
Grad: JK                            :      1.867u      0.000s      1.130w      1 calls
| JKGrad: Amn                       :      0.283u      0.000s      0.171w      1 calls
| JKGrad: Awmn                      :      0.000u      0.000s      0.000w      1 calls
| JKGrad: AB                        :      0.283u      0.000s      0.167w      1 calls
| JKGrad: UV                        :      0.000u      0.000s      0.000w      1 calls
| JKGrad: ABx                       :      0.133u      0.000s      0.075w      1 calls
| JKGrad: Amnx                      :      1.150u      0.000s      0.693w      1 calls
Grad: XC                            :      1.350u      0.017s      0.822w      1 calls
| Properties                        :      0.450u      0.017s      0.350w   2938 calls
| Functional                        :      0.400u      0.000s      0.171w   2938 calls
| V_xc gradient                     :      0.500u      0.000s      0.296w   2938 calls

**************************************************************************************
